

 Entering Gaussian System, Link 0=/usr/local/bin/webmo/g16/g16
 Initial command:
 /usr/local/bin/webmo/g16/l1.exe "/tmp/webmo-12180/7626/Gau-14361.inp" -scrdir="/tmp/webmo-12180/7626/"
 Entering Link 1 = /usr/local/bin/webmo/g16/l1.exe PID=     14362.
  
 Copyright (c) 1988,1990,1992,1993,1995,1998,2003,2009,2016,
            Gaussian, Inc.  All Rights Reserved.
  
 This is part of the Gaussian(R) 16 program.  It is based on
 the Gaussian(R) 09 system (copyright 2009, Gaussian, Inc.),
 the Gaussian(R) 03 system (copyright 2003, Gaussian, Inc.),
 the Gaussian(R) 98 system (copyright 1998, Gaussian, Inc.),
 the Gaussian(R) 94 system (copyright 1995, Gaussian, Inc.),
 the Gaussian 92(TM) system (copyright 1992, Gaussian, Inc.),
 the Gaussian 90(TM) system (copyright 1990, Gaussian, Inc.),
 the Gaussian 88(TM) system (copyright 1988, Gaussian, Inc.),
 the Gaussian 86(TM) system (copyright 1986, Carnegie Mellon
 University), and the Gaussian 82(TM) system (copyright 1983,
 Carnegie Mellon University). Gaussian is a federally registered
 trademark of Gaussian, Inc.
  
 This software contains proprietary and confidential information,
 including trade secrets, belonging to Gaussian, Inc.
  
 This software is provided under written license and may be
 used, copied, transmitted, or stored only in accord with that
 written license.
  
 The following legend is applicable only to US Government
 contracts under FAR:
  
                    RESTRICTED RIGHTS LEGEND
  
 Use, reproduction and disclosure by the US Government is
 subject to restrictions as set forth in subparagraphs (a)
 and (c) of the Commercial Computer Software - Restricted
 Rights clause in FAR 52.227-19.
  
 Gaussian, Inc.
 340 Quinnipiac St., Bldg. 40, Wallingford CT 06492
  
  
 ---------------------------------------------------------------
 Warning -- This program may not be used in any manner that
 competes with the business of Gaussian, Inc. or will provide
 assistance to any competitor of Gaussian, Inc.  The licensee
 of this program is prohibited from giving any competitor of
 Gaussian, Inc. access to this program.  By using this program,
 the user acknowledges that Gaussian, Inc. is engaged in the
 business of creating and licensing software in the field of
 computational chemistry and represents and warrants to the
 licensee that it is not a competitor of Gaussian, Inc. and that
 it will not use this program in any manner prohibited above.
 ---------------------------------------------------------------
  

 Cite this work as:
 Gaussian 16, Revision A.03,
 M. J. Frisch, G. W. Trucks, H. B. Schlegel, G. E. Scuseria, 
 M. A. Robb, J. R. Cheeseman, G. Scalmani, V. Barone, 
 G. A. Petersson, H. Nakatsuji, X. Li, M. Caricato, A. V. Marenich, 
 J. Bloino, B. G. Janesko, R. Gomperts, B. Mennucci, H. P. Hratchian, 
 J. V. Ortiz, A. F. Izmaylov, J. L. Sonnenberg, D. Williams-Young, 
 F. Ding, F. Lipparini, F. Egidi, J. Goings, B. Peng, A. Petrone, 
 T. Henderson, D. Ranasinghe, V. G. Zakrzewski, J. Gao, N. Rega, 
 G. Zheng, W. Liang, M. Hada, M. Ehara, K. Toyota, R. Fukuda, 
 J. Hasegawa, M. Ishida, T. Nakajima, Y. Honda, O. Kitao, H. Nakai, 
 T. Vreven, K. Throssell, J. A. Montgomery, Jr., J. E. Peralta, 
 F. Ogliaro, M. J. Bearpark, J. J. Heyd, E. N. Brothers, K. N. Kudin, 
 V. N. Staroverov, T. A. Keith, R. Kobayashi, J. Normand, 
 K. Raghavachari, A. P. Rendell, J. C. Burant, S. S. Iyengar, 
 J. Tomasi, M. Cossi, J. M. Millam, M. Klene, C. Adamo, R. Cammi, 
 J. W. Ochterski, R. L. Martin, K. Morokuma, O. Farkas, 
 J. B. Foresman, and D. J. Fox, Gaussian, Inc., Wallingford CT, 2016.
 
 ******************************************
 Gaussian 16:  ES64L-G16RevA.03 25-Dec-2016
                 6-Jan-2019 
 ******************************************
 %NProcShared=2
 Will use up to    2 processors via shared memory.
 -------------------------------------------------------
 #N TD(NStates=10) B3LYP/6-311+G(2d,p) Geom=Connectivity
 -------------------------------------------------------
 1/38=1,57=2,172=1/1;
 2/12=2,17=6,18=5,40=1/2;
 3/5=4,6=6,7=112,11=9,25=1,30=1,74=-5/1,2,3,8;
 4//1;
 5/5=2,38=5/2;
 8/6=1,10=2,108=10/1;
 9/41=10,42=1,70=2/14;
 6/7=2,8=2,9=2,10=2/1;
 99/5=1,9=1/99;
 -------------
 beta-Carotene
 -------------
 Symbolic Z-matrix:
 Charge =  0 Multiplicity = 1
 C
 C                    1    B1
 C                    2    B2       1    A1
 C                    3    B3       2    A2       1    D1       0
 C                    4    B4       3    A3       2    D2       0
 C                    5    B5       4    A4       3    D3       0
 C                    2    B6       3    A5       4    D4       0
 H                    7    B7       2    A6       3    D5       0
 H                    7    B8       2    A7       3    D6       0
 H                    6    B9       7    A8       2    D7       0
 H                    6    B10      7    A9       2    D8       0
 H                    5    B11      4    A10      3    D9       0
 H                    5    B12      4    A11      3    D10      0
 C                    4    B13      3    A12      2    D11      0
 H                    14   B14      4    A13      3    D12      0
 H                    14   B15      4    A14      3    D13      0
 H                    14   B16      4    A15      3    D14      0
 C                    3    B17      2    A16      7    D15      0
 C                    18   B18      3    A17      2    D16      0
 C                    19   B19      18   A18      3    D17      0
 C                    20   B20      19   A19      18   D18      0
 C                    21   B21      20   A20      19   D19      0
 C                    22   B22      21   A21      20   D20      0
 C                    23   B23      22   A22      21   D21      0
 C                    24   B24      23   A23      22   D22      0
 C                    25   B25      24   A24      23   D23      0
 C                    26   B26      25   A25      24   D24      0
 C                    27   B27      26   A26      25   D25      0
 C                    28   B28      27   A27      26   D26      0
 C                    29   B29      28   A28      27   D27      0
 C                    30   B30      29   A29      28   D28      0
 C                    31   B31      30   A30      29   D29      0
 C                    32   B32      31   A31      30   D30      0
 C                    33   B33      32   A32      31   D31      0
 C                    34   B34      33   A33      32   D32      0
 C                    35   B35      34   A34      33   D33      0
 C                    36   B36      35   A35      34   D34      0
 C                    37   B37      36   A36      35   D35      0
 C                    38   B38      37   A37      36   D36      0
 C                    39   B39      38   A38      37   D37      0
 C                    36   B40      35   A39      34   D38      0
 C                    41   B41      36   A40      35   D39      0
 H                    42   B42      41   A41      36   D40      0
 H                    42   B43      41   A42      36   D41      0
 H                    42   B44      41   A43      36   D42      0
 H                    40   B45      41   A44      36   D43      0
 H                    40   B46      41   A45      36   D44      0
 H                    39   B47      38   A46      37   D45      0
 H                    39   B48      38   A47      37   D46      0
 H                    38   B49      37   A48      36   D47      0
 H                    38   B50      37   A49      36   D48      0
 C                    37   B51      36   A50      35   D49      0
 H                    52   B52      37   A51      36   D50      0
 H                    52   B53      37   A52      36   D51      0
 H                    52   B54      37   A53      36   D52      0
 C                    37   B55      36   A54      35   D53      0
 H                    56   B56      37   A55      36   D54      0
 H                    56   B57      37   A56      36   D55      0
 H                    56   B58      37   A57      36   D56      0
 H                    35   B59      34   A58      33   D57      0
 H                    34   B60      33   A59      32   D58      0
 C                    33   B61      32   A60      31   D59      0
 H                    62   B62      33   A61      32   D60      0
 H                    62   B63      33   A62      32   D61      0
 H                    62   B64      33   A63      32   D62      0
 H                    32   B65      31   A64      30   D63      0
 H                    31   B66      30   A65      29   D64      0
 H                    30   B67      29   A66      28   D65      0
 C                    29   B68      28   A67      27   D66      0
 H                    69   B69      29   A68      28   D67      0
 H                    69   B70      29   A69      28   D68      0
 H                    69   B71      29   A70      28   D69      0
 H                    28   B72      27   A71      26   D70      0
 H                    27   B73      26   A72      25   D71      0
 H                    26   B74      25   A73      24   D72      0
 H                    25   B75      24   A74      23   D73      0
 C                    24   B76      23   A75      22   D74      0
 H                    77   B77      24   A76      23   D75      0
 H                    77   B78      24   A77      23   D76      0
 H                    77   B79      24   A78      23   D77      0
 H                    23   B80      22   A79      21   D78      0
 H                    22   B81      21   A80      20   D79      0
 H                    21   B82      20   A81      19   D80      0
 C                    20   B83      19   A82      18   D81      0
 H                    84   B84      20   A83      19   D82      0
 H                    84   B85      20   A84      19   D83      0
 H                    84   B86      20   A85      19   D84      0
 H                    19   B87      18   A86      3    D85      0
 H                    18   B88      3    A87      2    D86      0
 C                    2    B89      3    A88      4    D87      0
 H                    90   B90      2    A89      3    D88      0
 H                    90   B91      2    A90      3    D89      0
 H                    90   B92      2    A91      3    D90      0
 H                    1    B93      2    A92      3    D91      0
 H                    1    B94      2    A93      3    D92      0
 H                    1    B95      2    A94      3    D93      0
       Variables:
  B1                    1.53193                  
  B2                    1.5194                   
  B3                    1.34821                  
  B4                    1.49442                  
  B5                    1.51651                  
  B6                    1.53695                  
  B7                    1.10806                  
  B8                    1.10927                  
  B9                    1.10875                  
  B10                   1.10707                  
  B11                   1.10949                  
  B12                   1.10896                  
  B13                   1.48911                  
  B14                   1.0986                   
  B15                   1.10293                  
  B16                   1.09813                  
  B17                   1.46519                  
  B18                   1.33909                  
  B19                   1.46025                  
  B20                   1.35122                  
  B21                   1.44831                  
  B22                   1.34303                  
  B23                   1.45872                  
  B24                   1.35217                  
  B25                   1.44701                  
  B26                   1.34488                  
  B27                   1.44682                  
  B28                   1.35213                  
  B29                   1.45953                  
  B30                   1.34294                  
  B31                   1.4469                   
  B32                   1.35156                  
  B33                   1.46055                  
  B34                   1.33925                  
  B35                   1.46602                  
  B36                   1.51566                  
  B37                   1.54041                  
  B38                   1.51644                  
  B39                   1.51674                  
  B40                   1.35127                  
  B41                   1.48888                  
  B42                   1.10353                  
  B43                   1.09835                  
  B44                   1.09801                  
  B45                   1.10839                  
  B46                   1.10983                  
  B47                   1.11387                  
  B48                   1.10564                  
  B49                   1.10794                  
  B50                   1.10772                  
  B51                   1.52861                  
  B52                   1.09821                  
  B53                   1.09865                  
  B54                   1.09766                  
  B55                   1.53177                  
  B56                   1.0979                   
  B57                   1.10267                  
  B58                   1.10038                  
  B59                   1.10466                  
  B60                   1.10393                  
  B61                   1.48647                  
  B62                   1.10274                  
  B63                   1.09876                  
  B64                   1.0986                   
  B65                   1.09926                  
  B66                   1.10756                  
  B67                   1.09953                  
  B68                   1.48743                  
  B69                   1.09864                  
  B70                   1.10286                  
  B71                   1.09859                  
  B72                   1.09964                  
  B73                   1.09845                  
  B74                   1.103                    
  B75                   1.0993                   
  B76                   1.48646                  
  B77                   1.0987                   
  B78                   1.10261                  
  B79                   1.09847                  
  B80                   1.09986                  
  B81                   1.10316                  
  B82                   1.09925                  
  B83                   1.4864                   
  B84                   1.10255                  
  B85                   1.09861                  
  B86                   1.09883                  
  B87                   1.10373                  
  B88                   1.1057                   
  B89                   1.53272                  
  B90                   1.09775                  
  B91                   1.09876                  
  B92                   1.09816                  
  B93                   1.10297                  
  B94                   1.09752                  
  B95                   1.09781                  
  A1                  108.49504                  
  A2                  122.95076                  
  A3                  122.49884                  
  A4                  112.68595                  
  A5                  112.33608                  
  A6                  109.50645                  
  A7                  109.8011                   
  A8                  110.32682                  
  A9                  110.33615                  
  A10                 108.11915                  
  A11                 109.82218                  
  A12                 122.98592                  
  A13                 110.9536                   
  A14                 110.96909                  
  A15                 112.3859                   
  A16                 113.14369                  
  A17                 125.02953                  
  A18                 124.43186                  
  A19                 118.76405                  
  A20                 123.77531                  
  A21                 121.86095                  
  A22                 124.53453                  
  A23                 118.72648                  
  A24                 123.85694                  
  A25                 122.0651                   
  A26                 121.629                    
  A27                 124.40715                  
  A28                 118.48259                  
  A29                 124.01558                  
  A30                 122.39021                  
  A31                 123.7649                   
  A32                 118.66051                  
  A33                 124.48927                  
  A34                 125.11964                  
  A35                 119.55637                  
  A36                 110.11273                  
  A37                 110.14117                  
  A38                 109.84546                  
  A39                 118.35014                  
  A40                 122.02325                  
  A41                 111.59274                  
  A42                 110.55526                  
  A43                 111.58036                  
  A44                 109.34784                  
  A45                 107.96258                  
  A46                 108.81736                  
  A47                 111.00393                  
  A48                 110.12323                  
  A49                 109.71905                  
  A50                 110.68032                  
  A51                 111.07142                  
  A52                 111.45237                  
  A53                 111.37145                  
  A54                 109.67851                  
  A55                 111.21281                  
  A56                 110.25989                  
  A57                 111.94281                  
  A58                 121.12692                  
  A59                 115.90654                  
  A60                 122.59495                  
  A61                 111.92794                  
  A62                 111.0106                   
  A63                 110.95736                  
  A64                 116.55025                  
  A65                 120.58697                  
  A66                 116.07352                  
  A67                 122.42909                  
  A68                 111.13209                  
  A69                 112.07008                  
  A70                 111.23239                  
  A71                 116.21456                  
  A72                 120.56008                  
  A73                 116.5969                   
  A74                 119.61958                  
  A75                 118.68155                  
  A76                 110.95339                  
  A77                 111.90893                  
  A78                 111.00959                  
  A79                 119.63201                  
  A80                 116.2947                   
  A81                 119.60736                  
  A82                 118.514                    
  A83                 111.90517                  
  A84                 110.99413                  
  A85                 110.90813                  
  A86                 119.35978                  
  A87                 113.17451                  
  A88                 109.30479                  
  A89                 111.43716                  
  A90                 111.60788                  
  A91                 111.00258                  
  A92                 110.49493                  
  A93                 111.4884                   
  A94                 111.52441                  
  D1                 -112.0244                   
  D2                    0.68994                  
  D3                   19.69978                  
  D4                    9.49444                  
  D5                 -162.74959                  
  D6                   81.61265                  
  D7                  -61.20616                  
  D8                 -177.71372                  
  D9                 -102.67829                  
  D10                 142.27096                  
  D11                -179.60277                  
  D12                 -63.79704                  
  D13                  55.43467                  
  D14                 175.69552                  
  D15                -173.36851                  
  D16                 136.28327                  
  D17                -177.83597                  
  D18                -170.31968                  
  D19                -179.6516                   
  D20                -176.71941                  
  D21                 179.94703                  
  D22                -175.74999                  
  D23                -179.96446                  
  D24                -178.22284                  
  D25                -179.99854                  
  D26                -177.99622                  
  D27                -179.95385                  
  D28                -178.34084                  
  D29                 179.90844                  
  D30                -178.9519                   
  D31                -179.96851                  
  D32                -179.15907                  
  D33                -178.49026                  
  D34                 -47.77919                  
  D35                -158.86505                  
  D36                 -51.03714                  
  D37                  64.38562                  
  D38                 133.76037                  
  D39                  -0.63129                  
  D40                  26.09488                  
  D41                 -93.53563                  
  D42                 146.67623                  
  D43                 135.10607                  
  D44                -110.16386                  
  D45                 -56.36011                  
  D46                -173.11497                  
  D47                  70.82668                  
  D48                -172.90488                  
  D49                 -39.36348                  
  D50                -176.69627                  
  D51                  63.34722                  
  D52                 -56.70214                  
  D53                  82.01133                  
  D54                -172.33791                  
  D55                  68.35886                  
  D56                 -51.96511                  
  D57                  -2.43082                  
  D58                   1.03831                  
  D59                   0.02754                  
  D60                  -0.85876                  
  D61                -120.94866                  
  D62                 119.19836                  
  D63                   1.01337                  
  D64                  -0.05439                  
  D65                   1.54518                  
  D66                   0.06032                  
  D67                 -61.16407                  
  D68                 178.83841                  
  D69                  58.8096                   
  D70                   1.9405                   
  D71                   0.02372                  
  D72                   1.70015                  
  D73                   0.10023                  
  D74                   4.26329                  
  D75                 -62.28509                  
  D76                 177.71471                  
  D77                  57.56291                  
  D78                   0.19688                  
  D79                   3.22051                  
  D80                   0.38529                  
  D81                   9.9678                   
  D82                 174.26345                  
  D83                  53.96341                  
  D84                 -65.81012                  
  D85                   3.03266                  
  D86                 -41.74796                  
  D87                 129.12658                  
  D88                 -56.84015                  
  D89                  63.19681                  
  D90                -176.8859                   
  D91                 -51.43852                  
  D92                -171.39239                  
  D93                  68.08983                  
 
 Stoichiometry    C40H56
 Framework group  C1[X(C40H56)]
 Deg. of freedom   282
 Full point group                 C1      NOp   1
 Largest Abelian subgroup         C1      NOp   1
 Largest concise Abelian subgroup C1      NOp   1
                         Standard orientation:                         
 ---------------------------------------------------------------------
 Center     Atomic      Atomic             Coordinates (Angstroms)
 Number     Number       Type             X           Y           Z
 ---------------------------------------------------------------------
      1          6           0      -13.004433   -1.853473    0.475950
      2          6           0      -12.702278   -0.656659   -0.431331
      3          6           0      -11.576636    0.150006    0.193803
      4          6           0      -11.753454    1.388450    0.696449
      5          6           0      -13.081831    2.073062    0.695997
      6          6           0      -14.238490    1.105375    0.536282
      7          6           0      -13.977176    0.177891   -0.632251
      8          1           0      -14.841106   -0.498119   -0.788559
      9          1           0      -13.891973    0.776136   -1.562481
     10          1           0      -14.382200    0.520776    1.467361
     11          1           0      -15.182843    1.662115    0.381881
     12          1           0      -13.084804    2.819940   -0.124452
     13          1           0      -13.206663    2.652335    1.633364
     14          6           0      -10.649001    2.183128    1.301537
     15          1           0      -10.259984    1.691662    2.203781
     16          1           0       -9.807391    2.289735    0.596707
     17          1           0      -10.968711    3.194385    1.586211
     18          6           0      -10.307968   -0.580665    0.251907
     19          6           0       -9.110775   -0.068071   -0.059756
     20          6           0       -7.859811   -0.821092   -0.040451
     21          6           0       -6.695114   -0.150719   -0.181398
     22          6           0       -5.394621   -0.788138   -0.185559
     23          6           0       -4.257329   -0.078064   -0.263542
     24          6           0       -2.919015   -0.658330   -0.271150
     25          6           0       -1.851043    0.171000   -0.265968
     26          6           0       -0.477308   -0.283584   -0.273295
     27          6           0        0.558500    0.573234   -0.232440
     28          6           0        1.928552    0.108280   -0.240226
     29          6           0        3.010005    0.916099   -0.161890
     30          6           0        4.336391    0.307389   -0.181868
     31          6           0        5.482399    0.999815   -0.078407
     32          6           0        6.779640    0.359343   -0.100456
     33          6           0        7.948823    1.026244    0.021895
     34          6           0        9.195807    0.266788   -0.016446
     35          6           0       10.415682    0.804972    0.109433
     36          6           0       11.676918    0.060716    0.041815
     37          6           0       11.834765   -1.217131    0.841449
     38          6           0       13.328506   -1.531067    1.048914
     39          6           0       14.060573   -1.487086   -0.278388
     40          6           0       14.020390   -0.079603   -0.842195
     41          6           0       12.677844    0.561760   -0.715170
     42          6           0       12.528457    1.828103   -1.483821
     43          1           0       11.776532    2.494187   -1.026952
     44          1           0       12.204053    1.619072   -2.512138
     45          1           0       13.475451    2.381073   -1.539129
     46          1           0       14.324893   -0.086105   -1.907919
     47          1           0       14.758124    0.564325   -0.319868
     48          1           0       13.571038   -2.197997   -0.982424
     49          1           0       15.105870   -1.829367   -0.165969
     50          1           0       13.775260   -0.806820    1.758430
     51          1           0       13.439073   -2.527331    1.520371
     52          6           0       11.182585   -1.077306    2.216856
     53          1           0       11.343711   -1.978347    2.823678
     54          1           0       10.098065   -0.922770    2.133456
     55          1           0       11.595915   -0.224501    2.770705
     56          6           0       11.198440   -2.384016    0.080018
     57          1           0       11.177319   -3.294287    0.693490
     58          1           0       11.779334   -2.608179   -0.830031
     59          1           0       10.163682   -2.162579   -0.221782
     60          1           0       10.550262    1.896358    0.214462
     61          1           0        9.092829   -0.822427   -0.163643
     62          6           0        8.015158    2.501261    0.193731
     63          1           0        7.013078    2.961556    0.191816
     64          1           0        8.593537    2.966629   -0.616320
     65          1           0        8.497445    2.764743    1.144996
     66          1           0        6.786318   -0.732884   -0.224448
     67          1           0        5.467135    2.102011    0.029430
     68          1           0        4.364479   -0.786704   -0.287447
     69          6           0        2.894719    2.395297   -0.056354
     70          1           0        2.387536    2.816748   -0.935076
     71          1           0        3.880825    2.883558    0.017785
     72          1           0        2.319443    2.687084    0.832923
     73          1           0        2.071961   -0.979423   -0.314666
     74          1           0        0.385389    1.657184   -0.191430
     75          1           0       -0.318296   -1.374337   -0.312954
     76          1           0       -2.008055    1.258969   -0.254523
     77          6           0       -2.783275   -2.138515   -0.284600
     78          1           0       -3.220936   -2.581445    0.620612
     79          1           0       -1.727887   -2.454481   -0.330130
     80          1           0       -3.296608   -2.573197   -1.153039
     81          1           0       -4.304308    1.019174   -0.323107
     82          1           0       -5.389920   -1.889347   -0.120079
     83          1           0       -6.708417    0.941942   -0.300810
     84          6           0       -7.922350   -2.296664    0.127325
     85          1           0       -6.929320   -2.764714    0.025168
     86          1           0       -8.583543   -2.750503   -0.623536
     87          1           0       -8.310495   -2.562317    1.120406
     88          1           0       -9.034456    0.996588   -0.340638
     89          1           0      -10.428057   -1.637784    0.552998
     90          6           0      -12.255949   -1.169266   -1.805107
     91          1           0      -11.949957   -0.344083   -2.461225
     92          1           0      -11.402749   -1.856693   -1.722840
     93          1           0      -13.069300   -1.710586   -2.306503
     94          1           0      -12.078321   -2.405826    0.707809
     95          1           0      -13.703429   -2.552760   -0.000450
     96          1           0      -13.446602   -1.534953    1.428959
 ---------------------------------------------------------------------
 Rotational constants (GHZ):           0.3949160           0.0099447           0.0098131
 Standard basis: 6-311+G(2d,p) (5D, 7F)
 There are  1496 symmetry adapted cartesian basis functions of A   symmetry.
 There are  1416 symmetry adapted basis functions of A   symmetry.
  1416 basis functions,  2128 primitive gaussians,  1496 cartesian basis functions
   148 alpha electrons      148 beta electrons
       nuclear repulsion energy      3671.2365818869 Hartrees.
 NAtoms=   96 NActive=   96 NUniq=   96 SFac= 1.00D+00 NAtFMM=   60 NAOKFM=T Big=T
 Integral buffers will be    131072 words long.
 Regular integral format.
 Two-electron integral symmetry is turned on.
 One-electron integrals computed using PRISM.
 NBasis=  1416 RedAO= T EigKep=  1.21D-06  NBF=  1416
 NBsUse=  1401 1.00D-06 EigRej=  9.24D-07 NBFU=  1401
 ExpMin= 4.38D-02 ExpMax= 4.56D+03 ExpMxC= 6.82D+02 IAcc=3 IRadAn=         5 AccDes= 0.00D+00
 Harris functional with IExCor=  402 and IRadAn=       5 diagonalized for initial guess.
 HarFok:  IExCor=  402 AccDes= 0.00D+00 IRadAn=         5 IDoV= 1 UseB2=F ITyADJ=14
 ICtDFT=  3500011 ScaDFX=  1.000000  1.000000  1.000000  1.000000
 FoFCou: FMM=F IPFlag=           0 FMFlag=      100000 FMFlg1=        2001
         NFxFlg=           0 DoJE=T BraDBF=F KetDBF=T FulRan=T
         wScrn=  0.000000 ICntrl=       500 IOpCl=  0 I1Cent=   200000004 NGrid=           0
         NMat0=    1 NMatS0=      1 NMatT0=    0 NMatD0=    1 NMtDS0=    0 NMtDT0=    0
 Petite list used in FoFCou.
 Requested convergence on RMS density matrix=1.00D-08 within 128 cycles.
 Requested convergence on MAX density matrix=1.00D-06.
 Requested convergence on             energy=1.00D-06.
 No special actions if energy rises.
 SCF Done:  E(RB3LYP) =  -1558.30629986     A.U. after   14 cycles
            NFock= 14  Conv=0.71D-08     -V/T= 2.0047
 DoSCS=F DFT=T ScalE2(SS,OS)=  1.000000  1.000000
 ExpMin= 4.38D-02 ExpMax= 4.56D+03 ExpMxC= 6.82D+02 IAcc=3 IRadAn=         5 AccDes= 0.00D+00
 HarFok:  IExCor=  205 AccDes= 0.00D+00 IRadAn=         5 IDoV=-2 UseB2=F ITyADJ=14
 ICtDFT= 12500011 ScaDFX=  1.000000  1.000000  1.000000  1.000000
 GSVD:  LWork=       -1920 too small for GESVD, short by        8600 words or        8600 for optimal perf.
 Range of M.O.s used for correlation:    41  1401
 NBasis=  1416 NAE=   148 NBE=   148 NFC=    40 NFV=     0
 NROrb=   1361 NOA=   108 NOB=   108 NVA=  1253 NVB=  1253

 **** Warning!!: The largest alpha MO coefficient is  0.10475800D+03


 **** Warning!!: The smallest alpha delta epsilon is  0.91440380D-01

 Orbital symmetries:
       Occupied  (A) (A) (A) (A) (A) (A) (A) (A) (A) (A) (A) (A)
                 (A) (A) (A) (A) (A) (A) (A) (A) (A) (A) (A) (A)
                 (A) (A) (A) (A) (A) (A) (A) (A) (A) (A) (A) (A)
                 (A) (A) (A) (A) (A) (A) (A) (A) (A) (A) (A) (A)
                 (A) (A) (A) (A) (A) (A) (A) (A) (A) (A) (A) (A)
                 (A) (A) (A) (A) (A) (A) (A) (A) (A) (A) (A) (A)
                 (A) (A) (A) (A) (A) (A) (A) (A) (A) (A) (A) (A)
                 (A) (A) (A) (A) (A) (A) (A) (A) (A) (A) (A) (A)
                 (A) (A) (A) (A) (A) (A) (A) (A) (A) (A) (A) (A)
                 (A) (A) (A) (A) (A) (A) (A) (A) (A) (A) (A) (A)
                 (A) (A) (A) (A) (A) (A) (A) (A) (A) (A) (A) (A)
                 (A) (A) (A) (A) (A) (A) (A) (A) (A) (A) (A) (A)
                 (A) (A) (A) (A)
       Virtual   (A) (A) (A) (A) (A) (A) (A) (A) (A) (A) (A) (A)
                 (A) (A) (A) (A) (A) (A) (A) (A) (A) (A) (A) (A)
                 (A) (A) (A) (A) (A) (A) (A) (A) (A) (A) (A) (A)
                 (A) (A) (A) (A) (A) (A) (A) (A) (A) (A) (A) (A)
                 (A) (A) (A) (A) (A) (A) (A) (A) (A) (A) (A) (A)
                 (A) (A) (A) (A) (A) (A) (A) (A) (A) (A) (A) (A)
                 (A) (A) (A) (A) (A) (A) (A) (A) (A) (A) (A) (A)
                 (A) (A) (A) (A) (A) (A) (A) (A) (A) (A) (A) (A)
                 (A) (A) (A) (A) (A) (A) (A) (A) (A) (A) (A) (A)
                 (A) (A) (A) (A) (A) (A) (A) (A) (A) (A) (A) (A)
                 (A) (A) (A) (A) (A) (A) (A) (A) (A) (A) (A) (A)
                 (A) (A) (A) (A) (A) (A) (A) (A) (A) (A) (A) (A)
                 (A) (A) (A) (A) (A) (A) (A) (A) (A) (A) (A) (A)
                 (A) (A) (A) (A) (A) (A) (A) (A) (A) (A) (A) (A)
                 (A) (A) (A) (A) (A) (A) (A) (A) (A) (A) (A) (A)
                 (A) (A) (A) (A) (A) (A) (A) (A) (A) (A) (A) (A)
                 (A) (A) (A) (A) (A) (A) (A) (A) (A) (A) (A) (A)
                 (A) (A) (A) (A) (A) (A) (A) (A) (A) (A) (A) (A)
                 (A) (A) (A) (A) (A) (A) (A) (A) (A) (A) (A) (A)
                 (A) (A) (A) (A) (A) (A) (A) (A) (A) (A) (A) (A)
                 (A) (A) (A) (A) (A) (A) (A) (A) (A) (A) (A) (A)
                 (A) (A) (A) (A) (A) (A) (A) (A) (A) (A) (A) (A)
                 (A) (A) (A) (A) (A) (A) (A) (A) (A) (A) (A) (A)
                 (A) (A) (A) (A) (A) (A) (A) (A) (A) (A) (A) (A)
                 (A) (A) (A) (A) (A) (A) (A) (A) (A) (A) (A) (A)
                 (A) (A) (A) (A) (A) (A) (A) (A) (A) (A) (A) (A)
                 (A) (A) (A) (A) (A) (A) (A) (A) (A) (A) (A) (A)
                 (A) (A) (A) (A) (A) (A) (A) (A) (A) (A) (A) (A)
                 (A) (A) (A) (A) (A) (A) (A) (A) (A) (A) (A) (A)
                 (A) (A) (A) (A) (A) (A) (A) (A) (A) (A) (A) (A)
                 (A) (A) (A) (A) (A) (A) (A) (A) (A) (A) (A) (A)
                 (A) (A) (A) (A) (A) (A) (A) (A) (A) (A) (A) (A)
                 (A) (A) (A) (A) (A) (A) (A) (A) (A) (A) (A) (A)
                 (A) (A) (A) (A) (A) (A) (A) (A) (A) (A) (A) (A)
                 (A) (A) (A) (A) (A) (A) (A) (A) (A) (A) (A) (A)
                 (A) (A) (A) (A) (A) (A) (A) (A) (A) (A) (A) (A)
                 (A) (A) (A) (A) (A) (A) (A) (A) (A) (A) (A) (A)
                 (A) (A) (A) (A) (A) (A) (A) (A) (A) (A) (A) (A)
                 (A) (A) (A) (A) (A) (A) (A) (A) (A) (A) (A) (A)
                 (A) (A) (A) (A) (A) (A) (A) (A) (A) (A) (A) (A)
                 (A) (A) (A) (A) (A) (A) (A) (A) (A) (A) (A) (A)
                 (A) (A) (A) (A) (A) (A) (A) (A) (A) (A) (A) (A)
                 (A) (A) (A) (A) (A) (A) (A) (A) (A) (A) (A) (A)
                 (A) (A) (A) (A) (A) (A) (A) (A) (A) (A) (A) (A)
                 (A) (A) (A) (A) (A) (A) (A) (A) (A) (A) (A) (A)
                 (A) (A) (A) (A) (A) (A) (A) (A) (A) (A) (A) (A)
                 (A) (A) (A) (A) (A) (A) (A) (A) (A) (A) (A) (A)
                 (A) (A) (A) (A) (A) (A) (A) (A) (A) (A) (A) (A)
                 (A) (A) (A) (A) (A) (A) (A) (A) (A) (A) (A) (A)
                 (A) (A) (A) (A) (A) (A) (A) (A) (A) (A) (A) (A)
                 (A) (A) (A) (A) (A) (A) (A) (A) (A) (A) (A) (A)
                 (A) (A) (A) (A) (A) (A) (A) (A) (A) (A) (A) (A)
                 (A) (A) (A) (A) (A) (A) (A) (A) (A) (A) (A) (A)
                 (A) (A) (A) (A) (A) (A) (A) (A) (A) (A) (A) (A)
                 (A) (A) (A) (A) (A) (A) (A) (A) (A) (A) (A) (A)
                 (A) (A) (A) (A) (A) (A) (A) (A) (A) (A) (A) (A)
                 (A) (A) (A) (A) (A) (A) (A) (A) (A) (A) (A) (A)
                 (A) (A) (A) (A) (A) (A) (A) (A) (A) (A) (A) (A)
                 (A) (A) (A) (A) (A) (A) (A) (A) (A) (A) (A) (A)
                 (A) (A) (A) (A) (A) (A) (A) (A) (A) (A) (A) (A)
                 (A) (A) (A) (A) (A) (A) (A) (A) (A) (A) (A) (A)
                 (A) (A) (A) (A) (A) (A) (A) (A) (A) (A) (A) (A)
                 (A) (A) (A) (A) (A) (A) (A) (A) (A) (A) (A) (A)
                 (A) (A) (A) (A) (A) (A) (A) (A) (A) (A) (A) (A)
                 (A) (A) (A) (A) (A) (A) (A) (A) (A) (A) (A) (A)
                 (A) (A) (A) (A) (A) (A) (A) (A) (A) (A) (A) (A)
                 (A) (A) (A) (A) (A) (A) (A) (A) (A) (A) (A) (A)
                 (A) (A) (A) (A) (A) (A) (A) (A) (A) (A) (A) (A)
                 (A) (A) (A) (A) (A) (A) (A) (A) (A) (A) (A) (A)
                 (A) (A) (A) (A) (A) (A) (A) (A) (A) (A) (A) (A)
                 (A) (A) (A) (A) (A) (A) (A) (A) (A) (A) (A) (A)
                 (A) (A) (A) (A) (A) (A) (A) (A) (A) (A) (A) (A)
                 (A) (A) (A) (A) (A) (A) (A) (A) (A) (A) (A) (A)
                 (A) (A) (A) (A) (A) (A) (A) (A) (A) (A) (A) (A)
                 (A) (A) (A) (A) (A) (A) (A) (A) (A) (A) (A) (A)
                 (A) (A) (A) (A) (A) (A) (A) (A) (A) (A) (A) (A)
                 (A) (A) (A) (A) (A) (A) (A) (A) (A) (A) (A) (A)
                 (A) (A) (A) (A) (A) (A) (A) (A) (A) (A) (A) (A)
                 (A) (A) (A) (A) (A) (A) (A) (A) (A) (A) (A) (A)
                 (A) (A) (A) (A) (A) (A) (A) (A) (A) (A) (A) (A)
                 (A) (A) (A) (A) (A) (A) (A) (A) (A) (A) (A) (A)
                 (A) (A) (A) (A) (A) (A) (A) (A) (A) (A) (A) (A)
                 (A) (A) (A) (A) (A) (A) (A) (A) (A) (A) (A) (A)
                 (A) (A) (A) (A) (A) (A) (A) (A) (A) (A) (A) (A)
                 (A) (A) (A) (A) (A) (A) (A) (A) (A) (A) (A) (A)
                 (A) (A) (A) (A) (A) (A) (A) (A) (A) (A) (A) (A)
                 (A) (A) (A) (A) (A) (A) (A) (A) (A) (A) (A) (A)
                 (A) (A) (A) (A) (A) (A) (A) (A) (A) (A) (A) (A)
                 (A) (A) (A) (A) (A) (A) (A) (A) (A) (A) (A) (A)
                 (A) (A) (A) (A) (A) (A) (A) (A) (A) (A) (A) (A)
                 (A) (A) (A) (A) (A) (A) (A) (A) (A) (A) (A) (A)
                 (A) (A) (A) (A) (A) (A) (A) (A) (A) (A) (A) (A)
                 (A) (A) (A) (A) (A) (A) (A) (A) (A) (A) (A) (A)
                 (A) (A) (A) (A) (A) (A) (A) (A) (A) (A) (A) (A)
                 (A) (A) (A) (A) (A) (A) (A) (A) (A) (A) (A) (A)
                 (A) (A) (A) (A) (A) (A) (A) (A) (A) (A) (A) (A)
                 (A) (A) (A) (A) (A) (A) (A) (A) (A) (A) (A) (A)
                 (A) (A) (A) (A) (A) (A) (A) (A) (A) (A) (A) (A)
                 (A) (A) (A) (A) (A) (A) (A) (A) (A) (A) (A) (A)
                 (A) (A) (A) (A) (A) (A) (A) (A) (A) (A) (A) (A)
                 (A) (A) (A) (A) (A) (A) (A) (A) (A) (A) (A) (A)
                 (A) (A) (A) (A) (A) (A) (A) (A) (A) (A) (A) (A)
                 (A) (A) (A) (A) (A) (A) (A) (A) (A) (A) (A) (A)
                 (A) (A) (A) (A) (A) (A) (A) (A) (A) (A) (A) (A)
                 (A) (A) (A) (A) (A)
    40 initial guesses have been made.
 Convergence on wavefunction:    0.001000000000000
 Iteration     1 Dimension    40 NMult     0 NNew     40
 CISAX will form    10 AO SS matrices at one time.
 New state      3 was old state      4
 New state      4 was old state      7
 New state      6 was old state     15
 New state      7 was old state      9
 New state      8 was old state     10
 New state      9 was old state     11
 New state     10 was old state      8
 Iteration     2 Dimension    60 NMult    40 NNew     20
 New state      3 was old state      4
 New state      4 was old state      3
 Iteration     3 Dimension    80 NMult    60 NNew     20
 Iteration     4 Dimension   100 NMult    80 NNew     20
 Iteration     5 Dimension   116 NMult   100 NNew     16
 Iteration     6 Dimension   120 NMult   116 NNew      4
 ***********************************************************************
 Excited states from <AA,BB:AA,BB> singles matrix:
 ***********************************************************************
 
 Ground to excited state transition densities written to RWF  633
 Ground to excited state transition electric dipole moments (Au):
       state          X           Y           Z        Dip. S.      Osc.
         1        -7.9576     -0.6613      0.0904     63.7681      3.7219
         2         0.2002     -0.0258     -0.0383      0.0422      0.0029
         3         0.6129      0.3881      0.1996      0.5661      0.0469
         4        -0.8050     -0.2912      0.0188      0.7332      0.0615
         5         1.7009      0.2479     -0.0665      2.9589      0.2734
         6         0.0060     -0.1168      0.0813      0.0203      0.0019
         7        -0.7334      0.6399      0.2699      1.0201      0.0999
         8        -0.0160      0.0291     -0.2348      0.0562      0.0058
         9         0.1125     -0.0186     -0.0288      0.0138      0.0014
        10        -0.0497     -0.1416     -0.0046      0.0225      0.0024
 Ground to excited state transition velocity dipole moments (Au):
       state          X           Y           Z        Dip. S.      Osc.
         1         0.6972      0.0589     -0.0079      0.4896      3.7281
         2        -0.0209      0.0029      0.0040      0.0005      0.0029
         3        -0.0763     -0.0489     -0.0249      0.0088      0.0474
         4         0.1009      0.0374     -0.0024      0.0116      0.0615
         5        -0.2358     -0.0355      0.0092      0.0570      0.2740
         6        -0.0007      0.0167     -0.0118      0.0004      0.0019
         7         0.1074     -0.0940     -0.0400      0.0220      0.0997
         8         0.0025     -0.0046      0.0336      0.0012      0.0050
         9        -0.0175      0.0024      0.0041      0.0003      0.0014
        10         0.0081      0.0222      0.0009      0.0006      0.0024
 Ground to excited state transition magnetic dipole moments (Au):
       state          X           Y           Z
         1         0.0741     -0.4483      0.0271
         2        -0.0105      0.1091     -0.3793
         3         0.0453     -0.4753      1.2554
         4         0.0011     -0.3325      0.3591
         5        -0.0688      0.1986     -0.2559
         6        -0.0389     -0.0836     -0.1840
         7         0.1532     -0.0330      0.8185
         8         0.0905     -0.0858      0.0835
         9         0.2630     -0.5002      0.0620
        10         0.0683      0.1098     -0.5762
 Ground to excited state transition velocity quadrupole moments (Au):
       state          XX          YY          ZZ          XY          XZ          YZ
         1         0.4084      0.0101      0.0151      0.3351      0.0347     -0.0796
         2         2.9955      0.0393      0.0131     -0.1231     -0.1008      0.0049
         3       -15.4086     -0.2562     -0.1533      0.3147      0.5591     -0.0067
         4        -6.7642     -0.0625     -0.0676     -0.0440      0.2439      0.0146
         5         0.4134      0.0156      0.0020     -0.3285     -0.0878      0.0572
         6        -8.3561     -0.1575     -0.0617     -0.7573      0.0289      0.0226
         7        -0.0520     -0.1681      0.0132      0.8936      0.0636     -0.0984
         8        -0.1588     -0.0376      0.0107      0.0837      0.0712      0.0484
         9        -1.3355      0.0132     -0.0621     -0.1096      0.5521      0.2184
        10         2.3569      0.1284      0.0161     -0.3591     -0.1421      0.1012
 <0|del|b> * <b|rxdel|0> + <0|del|b> * <b|delr+rdel|0>
 Rotatory Strengths (R) in cgs (10**-40 erg-esu-cm/Gauss)
       state          XX          YY          ZZ    R(velocity)    E-M Angle
         1      -126.5038     -5.6655    334.3994     67.4100       85.49
         2        -4.8224     -3.0994      1.1717     -2.2501       96.75
         3        32.6837    -75.0883    -22.9650    -21.7899       95.22
         4       -62.7860      1.6846    -13.1793    -24.7602      104.51
         5       -39.6179      8.6717     65.7998     11.6179       85.04
         6        22.5778    -16.5365     -2.1366      1.3016       79.12
         7      -142.9309     21.4081     58.0671    -21.1519       96.13
         8        14.4717      0.7932      0.3959      5.2203       47.81
         9        -6.0366    -17.4620     -1.4921     -8.3302      122.40
        10        10.7680      2.6556     -2.2234      3.7334       79.78
 1/2[<0|r|b>*<b|rxdel|0> + (<0|rxdel|b>*<b|r|0>)*]
 Rotatory Strengths (R) in cgs (10**-40 erg-esu-cm/Gauss)
       state          XX          YY          ZZ     R(length)
         1       417.0537   -209.6655     -1.7322     68.5520
         2         1.4886      1.9907    -10.2806     -2.2671
         3       -19.6434    130.4226   -177.1725    -22.1311
         4         0.6030    -68.4700     -4.7802    -24.2157
         5        82.7822    -34.8250    -12.0374     11.9733
         6         0.1643     -6.9083     10.5849      1.2803
         7        79.4659     14.9234   -156.1967    -20.6025
         8         1.0238      1.7676     13.8698      5.5537
         9       -20.9226     -6.5680      1.2632     -8.7425
        10         2.3968     10.9906     -1.8830      3.8348
  1/2[<0|del|b>*<b|r|0> + (<0|r|b>*<b|del|0>)*] (Au)
       state          X           Y           Z        Dip. S.   Osc.(frdel)
         1        -5.5478     -0.0390     -0.0007      5.5875      3.7250
         2        -0.0042     -0.0001     -0.0002      0.0044      0.0029
         3        -0.0468     -0.0190     -0.0050      0.0707      0.0472
         4        -0.0813     -0.0109     -0.0000      0.0922      0.0615
         5        -0.4011     -0.0088     -0.0006      0.4105      0.2737
         6        -0.0000     -0.0020     -0.0010      0.0029      0.0019
         7        -0.0787     -0.0602     -0.0108      0.1497      0.0998
         8        -0.0000     -0.0001     -0.0079      0.0081      0.0054
         9        -0.0020     -0.0000     -0.0001      0.0021      0.0014
        10        -0.0004     -0.0031     -0.0000      0.0036      0.0024

 Excitation energies and oscillator strengths:
 
 Excited State   1:      Singlet-A      2.3823 eV  520.43 nm  f=3.7219  <S**2>=0.000
     148 -> 149        0.70507
 This state for optimization and/or second-order correction.
 Total Energy, E(TD-HF/TD-DFT) =  -1558.21875117    
 Copying the excited state density for this state as the 1-particle RhoCI density.
 
 Excited State   2:      Singlet-A      2.8422 eV  436.23 nm  f=0.0029  <S**2>=0.000
     147 -> 149        0.58723
     148 -> 150        0.38216
 
 Excited State   3:      Singlet-A      3.3815 eV  366.65 nm  f=0.0469  <S**2>=0.000
     145 -> 149       -0.19564
     146 -> 149       -0.24493
     147 -> 149       -0.34347
     148 -> 150        0.52287
 
 Excited State   4:      Singlet-A      3.4210 eV  362.42 nm  f=0.0615  <S**2>=0.000
     146 -> 149        0.59532
     147 -> 149       -0.13491
     148 -> 150        0.20578
     148 -> 151        0.25438
 
 Excited State   5:      Singlet-A      3.7709 eV  328.79 nm  f=0.2734  <S**2>=0.000
     147 -> 150        0.59061
     148 -> 151        0.36871
 
 Excited State   6:      Singlet-A      3.9125 eV  316.89 nm  f=0.0019  <S**2>=0.000
     145 -> 149        0.62741
     148 -> 150        0.17354
     148 -> 154        0.10048
     148 -> 156       -0.13508
 
 Excited State   7:      Singlet-A      3.9981 eV  310.11 nm  f=0.0999  <S**2>=0.000
     144 -> 149       -0.37988
     145 -> 149        0.11895
     146 -> 149       -0.21280
     147 -> 150       -0.29682
     148 -> 151        0.43131
 
 Excited State   8:      Singlet-A      4.2108 eV  294.44 nm  f=0.0058  <S**2>=0.000
     148 -> 152        0.45195
     148 -> 153        0.40783
     148 -> 154        0.18088
     148 -> 155        0.24473
 
 Excited State   9:      Singlet-A      4.2543 eV  291.43 nm  f=0.0014  <S**2>=0.000
     146 -> 150       -0.22758
     147 -> 152        0.11361
     148 -> 152       -0.38672
     148 -> 153        0.42811
     148 -> 154        0.20960
     148 -> 155       -0.10832
     148 -> 156        0.11800
 
 Excited State  10:      Singlet-A      4.2649 eV  290.71 nm  f=0.0024  <S**2>=0.000
     146 -> 150        0.60278
     147 -> 151       -0.12635
     148 -> 152       -0.14101
     148 -> 154        0.20119
     148 -> 155       -0.13954
 SavETr:  write IOETrn=   770 NScale= 10 NData=  16 NLR=1 NState=   10 LETran=     190.

 **********************************************************************

            Population analysis using the SCF density.

 **********************************************************************

 Orbital symmetries:
       Occupied  (A) (A) (A) (A) (A) (A) (A) (A) (A) (A) (A) (A)
                 (A) (A) (A) (A) (A) (A) (A) (A) (A) (A) (A) (A)
                 (A) (A) (A) (A) (A) (A) (A) (A) (A) (A) (A) (A)
                 (A) (A) (A) (A) (A) (A) (A) (A) (A) (A) (A) (A)
                 (A) (A) (A) (A) (A) (A) (A) (A) (A) (A) (A) (A)
                 (A) (A) (A) (A) (A) (A) (A) (A) (A) (A) (A) (A)
                 (A) (A) (A) (A) (A) (A) (A) (A) (A) (A) (A) (A)
                 (A) (A) (A) (A) (A) (A) (A) (A) (A) (A) (A) (A)
                 (A) (A) (A) (A) (A) (A) (A) (A) (A) (A) (A) (A)
                 (A) (A) (A) (A) (A) (A) (A) (A) (A) (A) (A) (A)
                 (A) (A) (A) (A) (A) (A) (A) (A) (A) (A) (A) (A)
                 (A) (A) (A) (A) (A) (A) (A) (A) (A) (A) (A) (A)
                 (A) (A) (A) (A)
       Virtual   (A) (A) (A) (A) (A) (A) (A) (A) (A) (A) (A) (A)
                 (A) (A) (A) (A) (A) (A) (A) (A) (A) (A) (A) (A)
                 (A) (A) (A) (A) (A) (A) (A) (A) (A) (A) (A) (A)
                 (A) (A) (A) (A) (A) (A) (A) (A) (A) (A) (A) (A)
                 (A) (A) (A) (A) (A) (A) (A) (A) (A) (A) (A) (A)
                 (A) (A) (A) (A) (A) (A) (A) (A) (A) (A) (A) (A)
                 (A) (A) (A) (A) (A) (A) (A) (A) (A) (A) (A) (A)
                 (A) (A) (A) (A) (A) (A) (A) (A) (A) (A) (A) (A)
                 (A) (A) (A) (A) (A) (A) (A) (A) (A) (A) (A) (A)
                 (A) (A) (A) (A) (A) (A) (A) (A) (A) (A) (A) (A)
                 (A) (A) (A) (A) (A) (A) (A) (A) (A) (A) (A) (A)
                 (A) (A) (A) (A) (A) (A) (A) (A) (A) (A) (A) (A)
                 (A) (A) (A) (A) (A) (A) (A) (A) (A) (A) (A) (A)
                 (A) (A) (A) (A) (A) (A) (A) (A) (A) (A) (A) (A)
                 (A) (A) (A) (A) (A) (A) (A) (A) (A) (A) (A) (A)
                 (A) (A) (A) (A) (A) (A) (A) (A) (A) (A) (A) (A)
                 (A) (A) (A) (A) (A) (A) (A) (A) (A) (A) (A) (A)
                 (A) (A) (A) (A) (A) (A) (A) (A) (A) (A) (A) (A)
                 (A) (A) (A) (A) (A) (A) (A) (A) (A) (A) (A) (A)
                 (A) (A) (A) (A) (A) (A) (A) (A) (A) (A) (A) (A)
                 (A) (A) (A) (A) (A) (A) (A) (A) (A) (A) (A) (A)
                 (A) (A) (A) (A) (A) (A) (A) (A) (A) (A) (A) (A)
                 (A) (A) (A) (A) (A) (A) (A) (A) (A) (A) (A) (A)
                 (A) (A) (A) (A) (A) (A) (A) (A) (A) (A) (A) (A)
                 (A) (A) (A) (A) (A) (A) (A) (A) (A) (A) (A) (A)
                 (A) (A) (A) (A) (A) (A) (A) (A) (A) (A) (A) (A)
                 (A) (A) (A) (A) (A) (A) (A) (A) (A) (A) (A) (A)
                 (A) (A) (A) (A) (A) (A) (A) (A) (A) (A) (A) (A)
                 (A) (A) (A) (A) (A) (A) (A) (A) (A) (A) (A) (A)
                 (A) (A) (A) (A) (A) (A) (A) (A) (A) (A) (A) (A)
                 (A) (A) (A) (A) (A) (A) (A) (A) (A) (A) (A) (A)
                 (A) (A) (A) (A) (A) (A) (A) (A) (A) (A) (A) (A)
                 (A) (A) (A) (A) (A) (A) (A) (A) (A) (A) (A) (A)
                 (A) (A) (A) (A) (A) (A) (A) (A) (A) (A) (A) (A)
                 (A) (A) (A) (A) (A) (A) (A) (A) (A) (A) (A) (A)
                 (A) (A) (A) (A) (A) (A) (A) (A) (A) (A) (A) (A)
                 (A) (A) (A) (A) (A) (A) (A) (A) (A) (A) (A) (A)
                 (A) (A) (A) (A) (A) (A) (A) (A) (A) (A) (A) (A)
                 (A) (A) (A) (A) (A) (A) (A) (A) (A) (A) (A) (A)
                 (A) (A) (A) (A) (A) (A) (A) (A) (A) (A) (A) (A)
                 (A) (A) (A) (A) (A) (A) (A) (A) (A) (A) (A) (A)
                 (A) (A) (A) (A) (A) (A) (A) (A) (A) (A) (A) (A)
                 (A) (A) (A) (A) (A) (A) (A) (A) (A) (A) (A) (A)
                 (A) (A) (A) (A) (A) (A) (A) (A) (A) (A) (A) (A)
                 (A) (A) (A) (A) (A) (A) (A) (A) (A) (A) (A) (A)
                 (A) (A) (A) (A) (A) (A) (A) (A) (A) (A) (A) (A)
                 (A) (A) (A) (A) (A) (A) (A) (A) (A) (A) (A) (A)
                 (A) (A) (A) (A) (A) (A) (A) (A) (A) (A) (A) (A)
                 (A) (A) (A) (A) (A) (A) (A) (A) (A) (A) (A) (A)
                 (A) (A) (A) (A) (A) (A) (A) (A) (A) (A) (A) (A)
                 (A) (A) (A) (A) (A) (A) (A) (A) (A) (A) (A) (A)
                 (A) (A) (A) (A) (A) (A) (A) (A) (A) (A) (A) (A)
                 (A) (A) (A) (A) (A) (A) (A) (A) (A) (A) (A) (A)
                 (A) (A) (A) (A) (A) (A) (A) (A) (A) (A) (A) (A)
                 (A) (A) (A) (A) (A) (A) (A) (A) (A) (A) (A) (A)
                 (A) (A) (A) (A) (A) (A) (A) (A) (A) (A) (A) (A)
                 (A) (A) (A) (A) (A) (A) (A) (A) (A) (A) (A) (A)
                 (A) (A) (A) (A) (A) (A) (A) (A) (A) (A) (A) (A)
                 (A) (A) (A) (A) (A) (A) (A) (A) (A) (A) (A) (A)
                 (A) (A) (A) (A) (A) (A) (A) (A) (A) (A) (A) (A)
                 (A) (A) (A) (A) (A) (A) (A) (A) (A) (A) (A) (A)
                 (A) (A) (A) (A) (A) (A) (A) (A) (A) (A) (A) (A)
                 (A) (A) (A) (A) (A) (A) (A) (A) (A) (A) (A) (A)
                 (A) (A) (A) (A) (A) (A) (A) (A) (A) (A) (A) (A)
                 (A) (A) (A) (A) (A) (A) (A) (A) (A) (A) (A) (A)
                 (A) (A) (A) (A) (A) (A) (A) (A) (A) (A) (A) (A)
                 (A) (A) (A) (A) (A) (A) (A) (A) (A) (A) (A) (A)
                 (A) (A) (A) (A) (A) (A) (A) (A) (A) (A) (A) (A)
                 (A) (A) (A) (A) (A) (A) (A) (A) (A) (A) (A) (A)
                 (A) (A) (A) (A) (A) (A) (A) (A) (A) (A) (A) (A)
                 (A) (A) (A) (A) (A) (A) (A) (A) (A) (A) (A) (A)
                 (A) (A) (A) (A) (A) (A) (A) (A) (A) (A) (A) (A)
                 (A) (A) (A) (A) (A) (A) (A) (A) (A) (A) (A) (A)
                 (A) (A) (A) (A) (A) (A) (A) (A) (A) (A) (A) (A)
                 (A) (A) (A) (A) (A) (A) (A) (A) (A) (A) (A) (A)
                 (A) (A) (A) (A) (A) (A) (A) (A) (A) (A) (A) (A)
                 (A) (A) (A) (A) (A) (A) (A) (A) (A) (A) (A) (A)
                 (A) (A) (A) (A) (A) (A) (A) (A) (A) (A) (A) (A)
                 (A) (A) (A) (A) (A) (A) (A) (A) (A) (A) (A) (A)
                 (A) (A) (A) (A) (A) (A) (A) (A) (A) (A) (A) (A)
                 (A) (A) (A) (A) (A) (A) (A) (A) (A) (A) (A) (A)
                 (A) (A) (A) (A) (A) (A) (A) (A) (A) (A) (A) (A)
                 (A) (A) (A) (A) (A) (A) (A) (A) (A) (A) (A) (A)
                 (A) (A) (A) (A) (A) (A) (A) (A) (A) (A) (A) (A)
                 (A) (A) (A) (A) (A) (A) (A) (A) (A) (A) (A) (A)
                 (A) (A) (A) (A) (A) (A) (A) (A) (A) (A) (A) (A)
                 (A) (A) (A) (A) (A) (A) (A) (A) (A) (A) (A) (A)
                 (A) (A) (A) (A) (A) (A) (A) (A) (A) (A) (A) (A)
                 (A) (A) (A) (A) (A) (A) (A) (A) (A) (A) (A) (A)
                 (A) (A) (A) (A) (A) (A) (A) (A) (A) (A) (A) (A)
                 (A) (A) (A) (A) (A) (A) (A) (A) (A) (A) (A) (A)
                 (A) (A) (A) (A) (A) (A) (A) (A) (A) (A) (A) (A)
                 (A) (A) (A) (A) (A) (A) (A) (A) (A) (A) (A) (A)
                 (A) (A) (A) (A) (A) (A) (A) (A) (A) (A) (A) (A)
                 (A) (A) (A) (A) (A) (A) (A) (A) (A) (A) (A) (A)
                 (A) (A) (A) (A) (A) (A) (A) (A) (A) (A) (A) (A)
                 (A) (A) (A) (A) (A) (A) (A) (A) (A) (A) (A) (A)
                 (A) (A) (A) (A) (A) (A) (A) (A) (A) (A) (A) (A)
                 (A) (A) (A) (A) (A) (A) (A) (A) (A) (A) (A) (A)
                 (A) (A) (A) (A) (A) (A) (A) (A) (A) (A) (A) (A)
                 (A) (A) (A) (A) (A) (A) (A) (A) (A) (A) (A) (A)
                 (A) (A) (A) (A) (A) (A) (A) (A) (A) (A) (A) (A)
                 (A) (A) (A) (A) (A) (A) (A) (A) (A) (A) (A) (A)
                 (A) (A) (A) (A) (A) (A) (A) (A) (A) (A) (A) (A)
                 (A) (A) (A) (A) (A)
 The electronic state is 1-A.
 Alpha  occ. eigenvalues --  -10.18117 -10.18037 -10.18030 -10.17993 -10.17959
 Alpha  occ. eigenvalues --  -10.17956 -10.17429 -10.17324 -10.17261 -10.17223
 Alpha  occ. eigenvalues --  -10.17146 -10.17133 -10.17128 -10.17027 -10.16971
 Alpha  occ. eigenvalues --  -10.16957 -10.16934 -10.16877 -10.16873 -10.16848
 Alpha  occ. eigenvalues --  -10.16813 -10.16800 -10.16742 -10.16737 -10.16730
 Alpha  occ. eigenvalues --  -10.16728 -10.16715 -10.16711 -10.16526 -10.16351
 Alpha  occ. eigenvalues --  -10.16308 -10.16305 -10.16219 -10.16205 -10.16178
 Alpha  occ. eigenvalues --  -10.15819 -10.15688 -10.15591 -10.15357 -10.15097
 Alpha  occ. eigenvalues --   -0.86253  -0.86089  -0.84476  -0.84012  -0.83080
 Alpha  occ. eigenvalues --   -0.82431  -0.79721  -0.79420  -0.79339  -0.78587
 Alpha  occ. eigenvalues --   -0.77846  -0.76140  -0.74947  -0.72933  -0.72617
 Alpha  occ. eigenvalues --   -0.70614  -0.69290  -0.69260  -0.68676  -0.68541
 Alpha  occ. eigenvalues --   -0.68446  -0.68292  -0.67776  -0.67541  -0.67131
 Alpha  occ. eigenvalues --   -0.63631  -0.61981  -0.60425  -0.58917  -0.57502
 Alpha  occ. eigenvalues --   -0.56640  -0.56522  -0.55144  -0.54891  -0.53829
 Alpha  occ. eigenvalues --   -0.53514  -0.52869  -0.51770  -0.50650  -0.50312
 Alpha  occ. eigenvalues --   -0.49149  -0.48318  -0.47948  -0.47564  -0.47240
 Alpha  occ. eigenvalues --   -0.46453  -0.45815  -0.45248  -0.45054  -0.44803
 Alpha  occ. eigenvalues --   -0.44065  -0.43740  -0.43047  -0.42857  -0.42672
 Alpha  occ. eigenvalues --   -0.42626  -0.42563  -0.42374  -0.42333  -0.42313
 Alpha  occ. eigenvalues --   -0.41994  -0.41648  -0.41055  -0.40765  -0.40566
 Alpha  occ. eigenvalues --   -0.40492  -0.39804  -0.39632  -0.39215  -0.39020
 Alpha  occ. eigenvalues --   -0.38807  -0.38785  -0.38581  -0.38023  -0.37810
 Alpha  occ. eigenvalues --   -0.37401  -0.37211  -0.36944  -0.36772  -0.36337
 Alpha  occ. eigenvalues --   -0.35912  -0.35733  -0.35589  -0.35334  -0.34933
 Alpha  occ. eigenvalues --   -0.34848  -0.34603  -0.34330  -0.34255  -0.34073
 Alpha  occ. eigenvalues --   -0.33682  -0.33396  -0.33200  -0.32739  -0.32207
 Alpha  occ. eigenvalues --   -0.32012  -0.31505  -0.31294  -0.30097  -0.29531
 Alpha  occ. eigenvalues --   -0.29342  -0.29110  -0.27418  -0.25193  -0.23575
 Alpha  occ. eigenvalues --   -0.21905  -0.19829  -0.17360
 Alpha virt. eigenvalues --   -0.08216  -0.04975  -0.02160  -0.00289  -0.00191
 Alpha virt. eigenvalues --    0.00261   0.00379   0.00512   0.00755   0.00911
 Alpha virt. eigenvalues --    0.01128   0.01359   0.01652   0.01800   0.02028
 Alpha virt. eigenvalues --    0.02103   0.02233   0.02720   0.03091   0.03384
 Alpha virt. eigenvalues --    0.03436   0.03517   0.03641   0.03698   0.03780
 Alpha virt. eigenvalues --    0.03939   0.04029   0.04099   0.04279   0.04399
 Alpha virt. eigenvalues --    0.04433   0.04757   0.05111   0.05418   0.05485
 Alpha virt. eigenvalues --    0.05542   0.05646   0.05797   0.05910   0.06221
 Alpha virt. eigenvalues --    0.06315   0.06448   0.06651   0.06782   0.06938
 Alpha virt. eigenvalues --    0.07094   0.07220   0.07459   0.07684   0.07730
 Alpha virt. eigenvalues --    0.07829   0.07876   0.08280   0.08752   0.08832
 Alpha virt. eigenvalues --    0.08893   0.09276   0.09328   0.09499   0.09667
 Alpha virt. eigenvalues --    0.09844   0.09959   0.10134   0.10255   0.10309
 Alpha virt. eigenvalues --    0.10361   0.10824   0.10977   0.11232   0.11288
 Alpha virt. eigenvalues --    0.11536   0.11583   0.11721   0.11924   0.12226
 Alpha virt. eigenvalues --    0.12318   0.12486   0.12611   0.12838   0.12963
 Alpha virt. eigenvalues --    0.13287   0.13452   0.13743   0.13872   0.14046
 Alpha virt. eigenvalues --    0.14208   0.14309   0.14416   0.14647   0.14735
 Alpha virt. eigenvalues --    0.15029   0.15311   0.15399   0.15577   0.15753
 Alpha virt. eigenvalues --    0.15819   0.15959   0.16149   0.16253   0.16318
 Alpha virt. eigenvalues --    0.16377   0.16401   0.16581   0.16783   0.16982
 Alpha virt. eigenvalues --    0.17166   0.17232   0.17305   0.17583   0.17737
 Alpha virt. eigenvalues --    0.17920   0.18064   0.18198   0.18338   0.18463
 Alpha virt. eigenvalues --    0.18576   0.18748   0.18867   0.19069   0.19171
 Alpha virt. eigenvalues --    0.19353   0.19442   0.19519   0.19808   0.19873
 Alpha virt. eigenvalues --    0.19939   0.20086   0.20206   0.20307   0.20451
 Alpha virt. eigenvalues --    0.20677   0.20763   0.20896   0.21006   0.21131
 Alpha virt. eigenvalues --    0.21230   0.21265   0.21302   0.21461   0.21548
 Alpha virt. eigenvalues --    0.21637   0.22024   0.22161   0.22339   0.22359
 Alpha virt. eigenvalues --    0.22455   0.22662   0.22792   0.22825   0.22971
 Alpha virt. eigenvalues --    0.23187   0.23304   0.23491   0.23783   0.23911
 Alpha virt. eigenvalues --    0.24032   0.24184   0.24248   0.24357   0.24460
 Alpha virt. eigenvalues --    0.24662   0.24727   0.24782   0.24995   0.25082
 Alpha virt. eigenvalues --    0.25139   0.25418   0.25541   0.25744   0.25776
 Alpha virt. eigenvalues --    0.25838   0.26191   0.26339   0.26537   0.26552
 Alpha virt. eigenvalues --    0.26862   0.26943   0.27107   0.27283   0.27407
 Alpha virt. eigenvalues --    0.27556   0.27707   0.27832   0.28219   0.28260
 Alpha virt. eigenvalues --    0.28359   0.28601   0.28825   0.28924   0.29201
 Alpha virt. eigenvalues --    0.29225   0.29300   0.29617   0.29749   0.29859
 Alpha virt. eigenvalues --    0.30094   0.30256   0.30401   0.30531   0.30630
 Alpha virt. eigenvalues --    0.30864   0.31046   0.31209   0.31593   0.31688
 Alpha virt. eigenvalues --    0.32045   0.32123   0.32284   0.32773   0.32947
 Alpha virt. eigenvalues --    0.33156   0.33368   0.33604   0.33837   0.34280
 Alpha virt. eigenvalues --    0.34379   0.34756   0.35029   0.35293   0.35314
 Alpha virt. eigenvalues --    0.36001   0.36087   0.36545   0.36686   0.36866
 Alpha virt. eigenvalues --    0.37237   0.37613   0.37882   0.38493   0.38654
 Alpha virt. eigenvalues --    0.39404   0.39976   0.40216   0.41164   0.41354
 Alpha virt. eigenvalues --    0.41546   0.41700   0.41879   0.42100   0.42309
 Alpha virt. eigenvalues --    0.42405   0.42539   0.42779   0.43008   0.43256
 Alpha virt. eigenvalues --    0.43538   0.43697   0.43920   0.44068   0.44235
 Alpha virt. eigenvalues --    0.44672   0.44933   0.45228   0.45258   0.45436
 Alpha virt. eigenvalues --    0.45734   0.45937   0.46165   0.46715   0.46887
 Alpha virt. eigenvalues --    0.47076   0.47557   0.47752   0.48213   0.48457
 Alpha virt. eigenvalues --    0.48876   0.49153   0.49425   0.49495   0.49843
 Alpha virt. eigenvalues --    0.50034   0.50493   0.50626   0.50725   0.51146
 Alpha virt. eigenvalues --    0.51533   0.51620   0.51713   0.51904   0.52098
 Alpha virt. eigenvalues --    0.52487   0.52516   0.52677   0.52953   0.53027
 Alpha virt. eigenvalues --    0.53290   0.53516   0.53658   0.54228   0.54332
 Alpha virt. eigenvalues --    0.54637   0.54801   0.55021   0.55271   0.55547
 Alpha virt. eigenvalues --    0.55776   0.55961   0.56111   0.56197   0.56319
 Alpha virt. eigenvalues --    0.56765   0.56849   0.56972   0.57178   0.57282
 Alpha virt. eigenvalues --    0.57364   0.57680   0.57897   0.58099   0.58445
 Alpha virt. eigenvalues --    0.58587   0.58884   0.59004   0.59150   0.59353
 Alpha virt. eigenvalues --    0.59547   0.59821   0.60055   0.60251   0.60342
 Alpha virt. eigenvalues --    0.60566   0.60749   0.60874   0.61193   0.61326
 Alpha virt. eigenvalues --    0.61569   0.61792   0.61892   0.62062   0.62370
 Alpha virt. eigenvalues --    0.62433   0.62670   0.63073   0.63188   0.63420
 Alpha virt. eigenvalues --    0.63610   0.63744   0.63855   0.64035   0.64352
 Alpha virt. eigenvalues --    0.64512   0.64610   0.64889   0.65077   0.65241
 Alpha virt. eigenvalues --    0.65582   0.65723   0.65964   0.66147   0.66274
 Alpha virt. eigenvalues --    0.66488   0.66663   0.66851   0.67108   0.67117
 Alpha virt. eigenvalues --    0.67378   0.67449   0.67700   0.68081   0.68112
 Alpha virt. eigenvalues --    0.68438   0.68539   0.68592   0.68642   0.68884
 Alpha virt. eigenvalues --    0.69420   0.69510   0.69579   0.69662   0.70076
 Alpha virt. eigenvalues --    0.70237   0.70255   0.70710   0.71023   0.71160
 Alpha virt. eigenvalues --    0.71218   0.71347   0.71761   0.71768   0.72012
 Alpha virt. eigenvalues --    0.72216   0.72414   0.72524   0.72753   0.73085
 Alpha virt. eigenvalues --    0.73252   0.73337   0.73586   0.73717   0.73903
 Alpha virt. eigenvalues --    0.73991   0.74159   0.74406   0.74623   0.74722
 Alpha virt. eigenvalues --    0.74795   0.75274   0.75361   0.75584   0.75654
 Alpha virt. eigenvalues --    0.76013   0.76294   0.76431   0.76601   0.76874
 Alpha virt. eigenvalues --    0.77034   0.77104   0.77261   0.77501   0.77705
 Alpha virt. eigenvalues --    0.77900   0.78038   0.78268   0.78474   0.78704
 Alpha virt. eigenvalues --    0.79023   0.79466   0.79557   0.79842   0.80048
 Alpha virt. eigenvalues --    0.80339   0.80467   0.80600   0.80737   0.81011
 Alpha virt. eigenvalues --    0.81444   0.81644   0.81836   0.81944   0.82555
 Alpha virt. eigenvalues --    0.82922   0.83169   0.83311   0.83447   0.84116
 Alpha virt. eigenvalues --    0.84181   0.84754   0.85156   0.85614   0.85894
 Alpha virt. eigenvalues --    0.86126   0.86719   0.86914   0.86979   0.87215
 Alpha virt. eigenvalues --    0.88005   0.88259   0.88619   0.88670   0.89485
 Alpha virt. eigenvalues --    0.89732   0.89912   0.90084   0.90623   0.90872
 Alpha virt. eigenvalues --    0.90917   0.91284   0.91626   0.92216   0.92564
 Alpha virt. eigenvalues --    0.92906   0.93152   0.93724   0.93883   0.94541
 Alpha virt. eigenvalues --    0.94612   0.94841   0.95006   0.95409   0.95851
 Alpha virt. eigenvalues --    0.96437   0.97034   0.97563   0.97742   0.98166
 Alpha virt. eigenvalues --    0.98694   0.99441   0.99878   1.00078   1.00503
 Alpha virt. eigenvalues --    1.01304   1.01491   1.01868   1.02284   1.02740
 Alpha virt. eigenvalues --    1.03205   1.03432   1.03595   1.03887   1.04558
 Alpha virt. eigenvalues --    1.04646   1.05138   1.05624   1.05945   1.06438
 Alpha virt. eigenvalues --    1.06914   1.07017   1.07407   1.07742   1.07868
 Alpha virt. eigenvalues --    1.08323   1.08644   1.08727   1.08956   1.09471
 Alpha virt. eigenvalues --    1.09654   1.09789   1.10076   1.10292   1.10563
 Alpha virt. eigenvalues --    1.10692   1.10994   1.11456   1.12014   1.13094
 Alpha virt. eigenvalues --    1.13433   1.13726   1.13902   1.14557   1.14832
 Alpha virt. eigenvalues --    1.15148   1.15714   1.16595   1.16979   1.17546
 Alpha virt. eigenvalues --    1.17636   1.18346   1.18801   1.19000   1.19271
 Alpha virt. eigenvalues --    1.19508   1.19900   1.20131   1.20499   1.21176
 Alpha virt. eigenvalues --    1.21387   1.21594   1.21620   1.21882   1.22356
 Alpha virt. eigenvalues --    1.22430   1.22916   1.23230   1.23931   1.24122
 Alpha virt. eigenvalues --    1.24312   1.24812   1.25148   1.25274   1.25943
 Alpha virt. eigenvalues --    1.26165   1.26211   1.26403   1.26718   1.27090
 Alpha virt. eigenvalues --    1.27280   1.27925   1.28064   1.28932   1.29274
 Alpha virt. eigenvalues --    1.29335   1.29539   1.29809   1.30430   1.30569
 Alpha virt. eigenvalues --    1.30789   1.31082   1.31372   1.31643   1.32006
 Alpha virt. eigenvalues --    1.32443   1.32553   1.32700   1.33062   1.33432
 Alpha virt. eigenvalues --    1.33829   1.34090   1.34293   1.34570   1.34655
 Alpha virt. eigenvalues --    1.34762   1.35079   1.35561   1.36128   1.36358
 Alpha virt. eigenvalues --    1.36606   1.37044   1.37445   1.37653   1.37989
 Alpha virt. eigenvalues --    1.38059   1.38677   1.38899   1.39026   1.39380
 Alpha virt. eigenvalues --    1.39590   1.40428   1.40495   1.40777   1.41098
 Alpha virt. eigenvalues --    1.41533   1.42064   1.42255   1.42440   1.42894
 Alpha virt. eigenvalues --    1.43474   1.43881   1.44095   1.45021   1.46070
 Alpha virt. eigenvalues --    1.46207   1.46373   1.46862   1.47049   1.47523
 Alpha virt. eigenvalues --    1.48284   1.48511   1.48896   1.49454   1.50202
 Alpha virt. eigenvalues --    1.51279   1.51362   1.52105   1.52336   1.52789
 Alpha virt. eigenvalues --    1.53095   1.53618   1.54495   1.55118   1.55719
 Alpha virt. eigenvalues --    1.56541   1.56711   1.56908   1.58189   1.58310
 Alpha virt. eigenvalues --    1.58546   1.58833   1.59009   1.59214   1.59811
 Alpha virt. eigenvalues --    1.60626   1.61345   1.62395   1.63195   1.63441
 Alpha virt. eigenvalues --    1.63721   1.63997   1.64726   1.65623   1.66009
 Alpha virt. eigenvalues --    1.66492   1.66671   1.66935   1.67032   1.68073
 Alpha virt. eigenvalues --    1.68623   1.68758   1.69111   1.69458   1.69934
 Alpha virt. eigenvalues --    1.70224   1.70752   1.71648   1.72209   1.72612
 Alpha virt. eigenvalues --    1.72894   1.73270   1.73467   1.74831   1.75672
 Alpha virt. eigenvalues --    1.75939   1.76231   1.76890   1.77416   1.77888
 Alpha virt. eigenvalues --    1.78337   1.79286   1.79859   1.80236   1.80634
 Alpha virt. eigenvalues --    1.80871   1.81528   1.82136   1.82519   1.83305
 Alpha virt. eigenvalues --    1.83369   1.83947   1.84505   1.84846   1.86490
 Alpha virt. eigenvalues --    1.86581   1.86868   1.87606   1.87953   1.88389
 Alpha virt. eigenvalues --    1.88523   1.89540   1.91452   1.91906   1.92345
 Alpha virt. eigenvalues --    1.92900   1.93831   1.94312   1.94519   1.94688
 Alpha virt. eigenvalues --    1.95060   1.95556   1.95766   1.96197   1.96898
 Alpha virt. eigenvalues --    1.97249   1.98432   1.99090   1.99714   2.00445
 Alpha virt. eigenvalues --    2.01668   2.01760   2.02009   2.02348   2.02712
 Alpha virt. eigenvalues --    2.02885   2.03758   2.04224   2.04841   2.04989
 Alpha virt. eigenvalues --    2.05310   2.06117   2.06480   2.06658   2.07049
 Alpha virt. eigenvalues --    2.07402   2.08082   2.09887   2.11194   2.11443
 Alpha virt. eigenvalues --    2.12058   2.14037   2.14336   2.14732   2.15364
 Alpha virt. eigenvalues --    2.17781   2.17858   2.18666   2.19730   2.19996
 Alpha virt. eigenvalues --    2.20278   2.20759   2.21674   2.21965   2.22474
 Alpha virt. eigenvalues --    2.22627   2.22644   2.23066   2.24471   2.24544
 Alpha virt. eigenvalues --    2.25683   2.25847   2.26180   2.26741   2.27465
 Alpha virt. eigenvalues --    2.27987   2.28124   2.29158   2.29828   2.29912
 Alpha virt. eigenvalues --    2.30308   2.30818   2.31651   2.31903   2.32791
 Alpha virt. eigenvalues --    2.32861   2.33143   2.33621   2.34230   2.34527
 Alpha virt. eigenvalues --    2.34793   2.34953   2.35071   2.35328   2.35553
 Alpha virt. eigenvalues --    2.35688   2.36087   2.36431   2.36611   2.37075
 Alpha virt. eigenvalues --    2.37374   2.37890   2.38284   2.38951   2.39298
 Alpha virt. eigenvalues --    2.39400   2.39933   2.40607   2.40857   2.41059
 Alpha virt. eigenvalues --    2.41667   2.42023   2.42365   2.42709   2.43181
 Alpha virt. eigenvalues --    2.43570   2.44062   2.44715   2.45139   2.45301
 Alpha virt. eigenvalues --    2.45936   2.46038   2.47090   2.47357   2.47592
 Alpha virt. eigenvalues --    2.47947   2.48641   2.49620   2.50148   2.50937
 Alpha virt. eigenvalues --    2.51477   2.52228   2.52928   2.54155   2.56192
 Alpha virt. eigenvalues --    2.56562   2.57052   2.57649   2.57797   2.58600
 Alpha virt. eigenvalues --    2.60352   2.61631   2.62703   2.63336   2.63525
 Alpha virt. eigenvalues --    2.63856   2.64598   2.65176   2.66509   2.67216
 Alpha virt. eigenvalues --    2.68033   2.68867   2.69429   2.69975   2.71387
 Alpha virt. eigenvalues --    2.72718   2.72826   2.73591   2.73822   2.74557
 Alpha virt. eigenvalues --    2.74657   2.75230   2.75595   2.75957   2.76260
 Alpha virt. eigenvalues --    2.76785   2.76796   2.77042   2.77458   2.77561
 Alpha virt. eigenvalues --    2.77916   2.78735   2.79079   2.79511   2.80062
 Alpha virt. eigenvalues --    2.80578   2.80765   2.81552   2.82151   2.82914
 Alpha virt. eigenvalues --    2.83063   2.83457   2.83859   2.84193   2.85068
 Alpha virt. eigenvalues --    2.85372   2.85675   2.85802   2.86766   2.87210
 Alpha virt. eigenvalues --    2.87558   2.88234   2.88348   2.88815   2.89442
 Alpha virt. eigenvalues --    2.89731   2.89997   2.90180   2.91415   2.91572
 Alpha virt. eigenvalues --    2.91858   2.93124   2.93168   2.93430   2.93973
 Alpha virt. eigenvalues --    2.94471   2.95442   2.95782   2.96079   2.96729
 Alpha virt. eigenvalues --    2.97231   2.97414   2.98179   2.98753   2.99060
 Alpha virt. eigenvalues --    3.00071   3.00614   3.01113   3.01567   3.02485
 Alpha virt. eigenvalues --    3.03104   3.03977   3.04308   3.04415   3.06083
 Alpha virt. eigenvalues --    3.06612   3.06908   3.07307   3.08057   3.08174
 Alpha virt. eigenvalues --    3.09360   3.10110   3.11661   3.12294   3.13270
 Alpha virt. eigenvalues --    3.13582   3.14328   3.14964   3.15333   3.15871
 Alpha virt. eigenvalues --    3.15983   3.16567   3.16622   3.16955   3.17547
 Alpha virt. eigenvalues --    3.18312   3.18762   3.19309   3.19636   3.20308
 Alpha virt. eigenvalues --    3.21354   3.21730   3.21979   3.22694   3.22975
 Alpha virt. eigenvalues --    3.23062   3.23266   3.23712   3.24328   3.25103
 Alpha virt. eigenvalues --    3.25745   3.26278   3.26407   3.26767   3.27231
 Alpha virt. eigenvalues --    3.27622   3.28546   3.28846   3.29152   3.29278
 Alpha virt. eigenvalues --    3.29874   3.30337   3.30739   3.31419   3.31757
 Alpha virt. eigenvalues --    3.32305   3.32356   3.32878   3.33018   3.33064
 Alpha virt. eigenvalues --    3.33125   3.33533   3.34684   3.35179   3.35356
 Alpha virt. eigenvalues --    3.35791   3.36089   3.36174   3.36483   3.36910
 Alpha virt. eigenvalues --    3.37178   3.37462   3.38240   3.38519   3.38601
 Alpha virt. eigenvalues --    3.39344   3.39845   3.40424   3.40565   3.40822
 Alpha virt. eigenvalues --    3.41801   3.42381   3.43029   3.43205   3.44204
 Alpha virt. eigenvalues --    3.44707   3.45137   3.46005   3.46168   3.46829
 Alpha virt. eigenvalues --    3.46910   3.47858   3.48145   3.48849   3.49231
 Alpha virt. eigenvalues --    3.49649   3.50248   3.50502   3.50724   3.50962
 Alpha virt. eigenvalues --    3.51828   3.51957   3.52067   3.52574   3.53051
 Alpha virt. eigenvalues --    3.53709   3.53913   3.54251   3.54412   3.54866
 Alpha virt. eigenvalues --    3.55226   3.55519   3.55733   3.56130   3.56523
 Alpha virt. eigenvalues --    3.56842   3.57050   3.57787   3.57961   3.58237
 Alpha virt. eigenvalues --    3.58595   3.58781   3.59099   3.59765   3.60151
 Alpha virt. eigenvalues --    3.60273   3.60612   3.60793   3.61200   3.61557
 Alpha virt. eigenvalues --    3.61730   3.62661   3.63058   3.63529   3.63551
 Alpha virt. eigenvalues --    3.63697   3.63955   3.64172   3.64240   3.64707
 Alpha virt. eigenvalues --    3.64811   3.65389   3.65511   3.66361   3.66797
 Alpha virt. eigenvalues --    3.66903   3.67212   3.67399   3.67746   3.68193
 Alpha virt. eigenvalues --    3.68443   3.68538   3.68746   3.68865   3.69488
 Alpha virt. eigenvalues --    3.69676   3.69805   3.70177   3.70273   3.71005
 Alpha virt. eigenvalues --    3.71611   3.71737   3.71852   3.72258   3.73007
 Alpha virt. eigenvalues --    3.73523   3.73982   3.74204   3.74434   3.74978
 Alpha virt. eigenvalues --    3.74990   3.75423   3.76179   3.76462   3.77017
 Alpha virt. eigenvalues --    3.77118   3.77466   3.78042   3.78256   3.78371
 Alpha virt. eigenvalues --    3.78567   3.79166   3.79588   3.79725   3.79872
 Alpha virt. eigenvalues --    3.80160   3.80303   3.80682   3.81306   3.82088
 Alpha virt. eigenvalues --    3.82718   3.83274   3.83871   3.84399   3.84442
 Alpha virt. eigenvalues --    3.84954   3.85569   3.86541   3.87256   3.87642
 Alpha virt. eigenvalues --    3.88527   3.89098   3.89368   3.90249   3.90547
 Alpha virt. eigenvalues --    3.90843   3.91693   3.92036   3.92877   3.93268
 Alpha virt. eigenvalues --    3.93567   3.94497   3.95222   3.95938   3.96963
 Alpha virt. eigenvalues --    3.97703   3.98752   3.99326   4.00279   4.00619
 Alpha virt. eigenvalues --    4.01784   4.02174   4.03516   4.04020   4.04992
 Alpha virt. eigenvalues --    4.05923   4.06453   4.06869   4.08336   4.10331
 Alpha virt. eigenvalues --    4.10928   4.12266   4.13136   4.13402   4.15654
 Alpha virt. eigenvalues --    4.15737   4.17011   4.18002   4.18646   4.19952
 Alpha virt. eigenvalues --    4.20048   4.20643   4.20721   4.20858   4.21071
 Alpha virt. eigenvalues --    4.21335   4.21483   4.21690   4.22043   4.22415
 Alpha virt. eigenvalues --    4.22818   4.23041   4.24087   4.24648   4.25136
 Alpha virt. eigenvalues --    4.25495   4.25630   4.25906   4.26657   4.27088
 Alpha virt. eigenvalues --    4.27309   4.27469   4.29573   4.30044   4.31404
 Alpha virt. eigenvalues --    4.32167   4.32360   4.33677   4.34784   4.35256
 Alpha virt. eigenvalues --    4.36488   4.36700   4.38007   4.38196   4.38552
 Alpha virt. eigenvalues --    4.42300   4.43296   4.49506   4.50683   4.51432
 Alpha virt. eigenvalues --    4.51935   4.53301   4.53474   4.54344   4.55081
 Alpha virt. eigenvalues --    4.55632   4.56893   4.58685   4.59925   4.63478
 Alpha virt. eigenvalues --    4.64230   4.65394   4.65905   4.68308   4.68896
 Alpha virt. eigenvalues --    4.70414   4.70503   4.75892   4.80485   4.83498
 Alpha virt. eigenvalues --    4.89230   4.92914   4.96672   5.03279   5.10086
 Alpha virt. eigenvalues --    5.20161   5.30057   5.37970  23.75292  23.75985
 Alpha virt. eigenvalues --   23.79540  23.83746  23.86274  23.88004  23.88995
 Alpha virt. eigenvalues --   23.90136  23.91039  23.91455  23.92126  23.92326
 Alpha virt. eigenvalues --   23.92488  23.95465  23.96112  23.97893  23.97929
 Alpha virt. eigenvalues --   24.03323  24.03436  24.05770  24.05928  24.06361
 Alpha virt. eigenvalues --   24.07474  24.08228  24.08691  24.10850  24.12223
 Alpha virt. eigenvalues --   24.12947  24.14454  24.15061  24.17249  24.18200
 Alpha virt. eigenvalues --   24.21629  24.22591  24.23817  24.25046  24.27325
 Alpha virt. eigenvalues --   24.28292  24.37262  24.38762
          Condensed to atoms (all electrons):
 Mulliken charges:
               1
     1  C   -0.505021
     2  C    0.455954
     3  C    0.250502
     4  C    0.274698
     5  C   -0.478153
     6  C   -0.275268
     7  C   -0.277051
     8  H    0.098124
     9  H    0.100927
    10  H    0.098999
    11  H    0.104129
    12  H    0.122538
    13  H    0.113200
    14  C   -0.542318
    15  H    0.139708
    16  H    0.109673
    17  H    0.114855
    18  C   -0.332308
    19  C   -0.064379
    20  C    0.632918
    21  C   -0.229875
    22  C   -0.023890
    23  C   -0.146788
    24  C    0.669921
    25  C   -0.218243
    26  C   -0.125971
    27  C   -0.061281
    28  C    0.069640
    29  C    0.601140
    30  C   -0.321467
    31  C    0.015049
    32  C   -0.161041
    33  C    0.492749
    34  C   -0.102008
    35  C   -0.238042
    36  C    0.387468
    37  C    0.475550
    38  C   -0.329352
    39  C   -0.262815
    40  C   -0.483291
    41  C    0.093373
    42  C   -0.428348
    43  H    0.102395
    44  H    0.140915
    45  H    0.120496
    46  H    0.118068
    47  H    0.123062
    48  H    0.093228
    49  H    0.105002
    50  H    0.100034
    51  H    0.098571
    52  C   -0.489312
    53  H    0.121615
    54  H    0.144391
    55  H    0.121106
    56  C   -0.477687
    57  H    0.117236
    58  H    0.105315
    59  H    0.112886
    60  H    0.078876
    61  H    0.049244
    62  C   -0.788251
    63  H    0.109033
    64  H    0.137077
    65  H    0.137127
    66  H    0.071407
    67  H    0.045374
    68  H    0.070427
    69  C   -0.846953
    70  H    0.139254
    71  H    0.113662
    72  H    0.138588
    73  H    0.068157
    74  H    0.079346
    75  H    0.063301
    76  H    0.070412
    77  C   -0.842132
    78  H    0.136375
    79  H    0.108741
    80  H    0.136234
    81  H    0.068616
    82  H    0.070749
    83  H    0.070156
    84  C   -0.812706
    85  H    0.109424
    86  H    0.135295
    87  H    0.138401
    88  H    0.053827
    89  H    0.074639
    90  C   -0.485988
    91  H    0.124655
    92  H    0.133095
    93  H    0.124714
    94  H    0.112823
    95  H    0.119087
    96  H    0.116390
 Sum of Mulliken charges =  -0.00000
 Mulliken charges with hydrogens summed into heavy atoms:
               1
     1  C   -0.156721
     2  C    0.455954
     3  C    0.250502
     4  C    0.274698
     5  C   -0.242415
     6  C   -0.072141
     7  C   -0.077999
    14  C   -0.178082
    18  C   -0.257670
    19  C   -0.010552
    20  C    0.632918
    21  C   -0.159719
    22  C    0.046859
    23  C   -0.078172
    24  C    0.669921
    25  C   -0.147832
    26  C   -0.062670
    27  C    0.018065
    28  C    0.137797
    29  C    0.601140
    30  C   -0.251040
    31  C    0.060423
    32  C   -0.089634
    33  C    0.492749
    34  C   -0.052764
    35  C   -0.159166
    36  C    0.387468
    37  C    0.475550
    38  C   -0.130747
    39  C   -0.064585
    40  C   -0.242162
    41  C    0.093373
    42  C   -0.064542
    52  C   -0.102200
    56  C   -0.142250
    62  C   -0.405014
    69  C   -0.455449
    77  C   -0.460782
    84  C   -0.429586
    90  C   -0.103525
 Electronic spatial extent (au):  <R**2>=         104032.1140
 Charge=              0.0000 electrons
 Dipole moment (field-independent basis, Debye):
    X=              0.3462    Y=              0.3274    Z=              0.0318  Tot=              0.4776
 Quadrupole moment (field-independent basis, Debye-Ang):
   XX=           -218.1984   YY=           -238.8813   ZZ=           -261.8623
   XY=              2.4507   XZ=             -4.0176   YZ=              0.1841
 Traceless Quadrupole moment (field-independent basis, Debye-Ang):
   XX=             21.4489   YY=              0.7660   ZZ=            -22.2150
   XY=              2.4507   XZ=             -4.0176   YZ=              0.1841
 Octapole moment (field-independent basis, Debye-Ang**2):
  XXX=            129.7605  YYY=              8.8289  ZZZ=              3.8179  XYY=             -2.9089
  XXY=             56.2913  XXZ=            -12.2605  XZZ=              0.5196  YZZ=              1.0535
  YYZ=              1.3638  XYZ=              1.3827
 Hexadecapole moment (field-independent basis, Debye-Ang**3):
 XXXX=        -135389.9058 YYYY=          -3323.4441 ZZZZ=          -1272.8648 XXXY=           -124.6471
 XXXZ=           -618.1295 YYYX=             25.5757 YYYZ=             -0.4985 ZZZX=            -82.8989
 ZZZY=              2.5113 XXYY=         -23902.2769 XXZZ=         -24525.2082 YYZZ=           -760.6376
 XXYZ=             -2.5633 YYXZ=             16.1871 ZZXY=            -33.8936
 N-N= 3.671236581887D+03 E-N=-1.095267161441D+04  KE= 1.551052510030D+03
 1\1\GINC-COMPCHEM0\SP\RB3LYP TD-FC\6-311+G(2d,p)\C40H56\APACHE\07-Jan-
 2019\0\\#N TD(NStates=10) B3LYP/6-311+G(2d,p) Geom=Connectivity\\beta-
 Carotene\\0,1\C\C,1,1.531934039\C,2,1.519398223,1,108.4950399\C,3,1.34
 8207225,2,122.9507611,1,-112.024396,0\C,4,1.494415793,3,122.4988408,2,
 0.6899364,0\C,5,1.516505115,4,112.68595,3,19.69978176,0\C,2,1.53694647
 7,3,112.3360781,4,9.49444027,0\H,7,1.108060104,2,109.5064528,3,-162.74
 95925,0\H,7,1.109272184,2,109.8010994,3,81.61265148,0\H,6,1.108745314,
 7,110.3268156,2,-61.20616422,0\H,6,1.10706903,7,110.3361506,2,-177.713
 7207,0\H,5,1.109492628,4,108.1191544,3,-102.6782884,0\H,5,1.108962418,
 4,109.822184,3,142.270956,0\C,4,1.489114155,3,122.9859167,2,-179.60277
 08,0\H,14,1.098597179,4,110.9536028,3,-63.79703923,0\H,14,1.102931342,
 4,110.9690894,3,55.43467047,0\H,14,1.098132277,4,112.385899,3,175.6955
 174,0\C,3,1.465187152,2,113.1436932,7,-173.3685054,0\C,18,1.339088775,
 3,125.0295311,2,136.2832731,0\C,19,1.460247711,18,124.4318649,3,-177.8
 359744,0\C,20,1.351215947,19,118.7640484,18,-170.3196774,0\C,21,1.4483
 10618,20,123.7753141,19,-179.6515985,0\C,22,1.343026074,21,121.8609529
 ,20,-176.7194114,0\C,23,1.458715894,22,124.5345326,21,179.9470321,0\C,
 24,1.35217489,23,118.7264845,22,-175.749988,0\C,25,1.447014312,24,123.
 8569447,23,-179.9644645,0\C,26,1.344881115,25,122.0650979,24,-178.2228
 382,0\C,27,1.446819498,26,121.6289996,25,-179.99854,0\C,28,1.352127403
 ,27,124.4071478,26,-177.9962222,0\C,29,1.459529889,28,118.4825873,27,-
 179.9538514,0\C,30,1.342941114,29,124.0155849,28,-178.3408409,0\C,31,1
 .446902605,30,122.3902099,29,179.9084443,0\C,32,1.351560088,31,123.764
 8996,30,-178.9519046,0\C,33,1.460552576,32,118.6605094,31,-179.9685131
 ,0\C,34,1.339246257,33,124.4892667,32,-179.1590662,0\C,35,1.466016909,
 34,125.1196396,33,-178.4902584,0\C,36,1.515659353,35,119.5563671,34,-4
 7.77918846,0\C,37,1.540408017,36,110.1127321,35,-158.8650473,0\C,38,1.
 516438528,37,110.1411715,36,-51.0371381,0\C,39,1.516740626,38,109.8454
 588,37,64.38561809,0\C,36,1.351267583,35,118.3501355,34,133.760373,0\C
 ,41,1.488880864,36,122.0232536,35,-0.63129435,0\H,42,1.103534327,41,11
 1.5927355,36,26.0948755,0\H,42,1.098347978,41,110.5552602,36,-93.53562
 864,0\H,42,1.098013384,41,111.5803581,36,146.6762271,0\H,40,1.10839155
 7,41,109.3478416,36,135.1060734,0\H,40,1.109828978,41,107.9625826,36,-
 110.1638618,0\H,39,1.113870171,38,108.8173606,37,-56.36011485,0\H,39,1
 .105640044,38,111.0039258,37,-173.1149704,0\H,38,1.10794264,37,110.123
 2258,36,70.82667658,0\H,38,1.1077176,37,109.7190502,36,-172.9048802,0\
 C,37,1.528605437,36,110.6803248,35,-39.36347713,0\H,52,1.098212113,37,
 111.0714187,36,-176.6962683,0\H,52,1.098645064,37,111.4523717,36,63.34
 721503,0\H,52,1.097663586,37,111.3714474,36,-56.70213608,0\C,37,1.5317
 6631,36,109.6785061,35,82.0113274,0\H,56,1.09790112,37,111.2128144,36,
 -172.3379063,0\H,56,1.102667741,37,110.2598857,36,68.35886211,0\H,56,1
 .100382618,37,111.942813,36,-51.96510807,0\H,35,1.104657254,34,121.126
 9244,33,-2.43082128,0\H,34,1.103929941,33,115.9065435,32,1.03831248,0\
 C,33,1.486473183,32,122.5949501,31,0.02754415,0\H,62,1.102741394,33,11
 1.9279399,32,-0.8587622,0\H,62,1.098759484,33,111.0105953,32,-120.9486
 619,0\H,62,1.098602636,33,110.9573556,32,119.1983563,0\H,32,1.09926193
 3,31,116.5502503,30,1.01337311,0\H,31,1.107563149,30,120.5869683,29,-0
 .05439235,0\H,30,1.099534645,29,116.0735232,28,1.54517982,0\C,29,1.487
 432347,28,122.4290908,27,0.06032047,0\H,69,1.098639879,29,111.1320896,
 28,-61.16406939,0\H,69,1.102860433,29,112.0700767,28,178.8384089,0\H,6
 9,1.098588221,29,111.2323938,28,58.80959806,0\H,28,1.099638658,27,116.
 2145583,26,1.94050194,0\H,27,1.098451432,26,120.5600793,25,0.02372218,
 0\H,26,1.102995727,25,116.5969014,24,1.70014626,0\H,25,1.099299844,24,
 119.61958,23,0.10022689,0\C,24,1.486457407,23,118.681548,22,4.26328902
 ,0\H,77,1.098700777,24,110.9533939,23,-62.28509384,0\H,77,1.102611367,
 24,111.90893,23,177.7147145,0\H,77,1.098474178,24,111.0095918,23,57.56
 290688,0\H,23,1.099857742,22,119.6320131,21,0.19688022,0\H,22,1.103163
 321,21,116.2947022,20,3.2205063,0\H,21,1.099246882,20,119.607357,19,0.
 38528734,0\C,20,1.486396321,19,118.5139992,18,9.96779528,0\H,84,1.1025
 48951,20,111.9051684,19,174.2634511,0\H,84,1.09860749,20,110.9941298,1
 9,53.96340914,0\H,84,1.098834223,20,110.9081321,19,-65.81011725,0\H,19
 ,1.103728726,18,119.3597808,3,3.03265916,0\H,18,1.105702751,3,113.1745
 12,2,-41.74795986,0\C,2,1.532722141,3,109.3047862,4,129.1265831,0\H,90
 ,1.097747368,2,111.4371623,3,-56.84015237,0\H,90,1.098760751,2,111.607
 8839,3,63.19681274,0\H,90,1.098164055,2,111.0025826,3,-176.8858998,0\H
 ,1,1.10296727,2,110.4949336,3,-51.43852058,0\H,1,1.09752202,2,111.4884
 ,3,-171.392392,0\H,1,1.097813902,2,111.5244086,3,68.08982541,0\\Versio
 n=ES64L-G16RevA.03\State=1-A\HF=-1558.3062999\RMSD=7.132e-09\PG=C01 [X
 (C40H56)]\\@


          EVOLUTION
 IN THE BEGINNING GOD MADE MAN.
 HE WORKED THE DIRT WITH HIS HANDS.
 THEN GOD DECIDED TO GIVE MAN SCIENCE,
 MAN SHOULD BE USEFUL (LIKE AN APPLIANCE.)
 BUT SOON MAN'S KNOWLEDGE GREW TOO GREAT,
 TO THE HEADING SCIENCE HE COULDN'T RELATE
 SO GOD SAID "LETS HAVE DIFFERENT FIELDS,
 WE'LL DIVIDE THEM UP, SEE WHAT IT YIELDS."
 ENTER PHYSICS, CHEMISTRY, BIO
 THEY SPRANG UP AROUND THE NILE.
 BUT CHEMISTRY SURPASSED THE REST
 FAR AND AWAY IT WAS THE BEST.
 EXPERIMENT WAS GOD'S DECREE
 EXPERIMENT DID CHEMISTS WITH LOTS OF GLEE
 BUT SOON THEIR TESTS BEGAN TO BOG,
 THEY FOUND THEMSELVES DEEP IN A FOG.
 "GIVE US SOME HELP" THEY CRIED TO GOD.
 GOD LOOKED AROUND, THEN GAVE THE NOD.
 ENTER EINSTEIN, HEISENBERG, BOHR,
 REACTION PATHS WERE CLEAR ONCE MORE.
 WITH THEORISTS GOD SEND DIRECTION
 AND THEN HE STOPPED, HE'D MADE PERFECTION.
          -- THOMAS A. HOLME, 1981
 Job cpu time:       1 days 16 hours 25 minutes 50.1 seconds.
 Elapsed time:       0 days 20 hours 14 minutes 20.2 seconds.
 File lengths (MBytes):  RWF=   8581 Int=      0 D2E=      0 Chk=    686 Scr=      1
 Normal termination of Gaussian 16 at Mon Jan  7 16:05:41 2019.


