

 Entering Gaussian System, Link 0=/usr/local/bin/webmo/g16/g16
 Initial command:
 /usr/local/bin/webmo/g16/l1.exe "/tmp/webmo-12180/7689/Gau-72616.inp" -scrdir="/tmp/webmo-12180/7689/"
 Entering Link 1 = /usr/local/bin/webmo/g16/l1.exe PID=     72619.
  
 Copyright (c) 1988,1990,1992,1993,1995,1998,2003,2009,2016,
            Gaussian, Inc.  All Rights Reserved.
  
 This is part of the Gaussian(R) 16 program.  It is based on
 the Gaussian(R) 09 system (copyright 2009, Gaussian, Inc.),
 the Gaussian(R) 03 system (copyright 2003, Gaussian, Inc.),
 the Gaussian(R) 98 system (copyright 1998, Gaussian, Inc.),
 the Gaussian(R) 94 system (copyright 1995, Gaussian, Inc.),
 the Gaussian 92(TM) system (copyright 1992, Gaussian, Inc.),
 the Gaussian 90(TM) system (copyright 1990, Gaussian, Inc.),
 the Gaussian 88(TM) system (copyright 1988, Gaussian, Inc.),
 the Gaussian 86(TM) system (copyright 1986, Carnegie Mellon
 University), and the Gaussian 82(TM) system (copyright 1983,
 Carnegie Mellon University). Gaussian is a federally registered
 trademark of Gaussian, Inc.
  
 This software contains proprietary and confidential information,
 including trade secrets, belonging to Gaussian, Inc.
  
 This software is provided under written license and may be
 used, copied, transmitted, or stored only in accord with that
 written license.
  
 The following legend is applicable only to US Government
 contracts under FAR:
  
                    RESTRICTED RIGHTS LEGEND
  
 Use, reproduction and disclosure by the US Government is
 subject to restrictions as set forth in subparagraphs (a)
 and (c) of the Commercial Computer Software - Restricted
 Rights clause in FAR 52.227-19.
  
 Gaussian, Inc.
 340 Quinnipiac St., Bldg. 40, Wallingford CT 06492
  
  
 ---------------------------------------------------------------
 Warning -- This program may not be used in any manner that
 competes with the business of Gaussian, Inc. or will provide
 assistance to any competitor of Gaussian, Inc.  The licensee
 of this program is prohibited from giving any competitor of
 Gaussian, Inc. access to this program.  By using this program,
 the user acknowledges that Gaussian, Inc. is engaged in the
 business of creating and licensing software in the field of
 computational chemistry and represents and warrants to the
 licensee that it is not a competitor of Gaussian, Inc. and that
 it will not use this program in any manner prohibited above.
 ---------------------------------------------------------------
  

 Cite this work as:
 Gaussian 16, Revision A.03,
 M. J. Frisch, G. W. Trucks, H. B. Schlegel, G. E. Scuseria, 
 M. A. Robb, J. R. Cheeseman, G. Scalmani, V. Barone, 
 G. A. Petersson, H. Nakatsuji, X. Li, M. Caricato, A. V. Marenich, 
 J. Bloino, B. G. Janesko, R. Gomperts, B. Mennucci, H. P. Hratchian, 
 J. V. Ortiz, A. F. Izmaylov, J. L. Sonnenberg, D. Williams-Young, 
 F. Ding, F. Lipparini, F. Egidi, J. Goings, B. Peng, A. Petrone, 
 T. Henderson, D. Ranasinghe, V. G. Zakrzewski, J. Gao, N. Rega, 
 G. Zheng, W. Liang, M. Hada, M. Ehara, K. Toyota, R. Fukuda, 
 J. Hasegawa, M. Ishida, T. Nakajima, Y. Honda, O. Kitao, H. Nakai, 
 T. Vreven, K. Throssell, J. A. Montgomery, Jr., J. E. Peralta, 
 F. Ogliaro, M. J. Bearpark, J. J. Heyd, E. N. Brothers, K. N. Kudin, 
 V. N. Staroverov, T. A. Keith, R. Kobayashi, J. Normand, 
 K. Raghavachari, A. P. Rendell, J. C. Burant, S. S. Iyengar, 
 J. Tomasi, M. Cossi, J. M. Millam, M. Klene, C. Adamo, R. Cammi, 
 J. W. Ochterski, R. L. Martin, K. Morokuma, O. Farkas, 
 J. B. Foresman, and D. J. Fox, Gaussian, Inc., Wallingford CT, 2016.
 
 ******************************************
 Gaussian 16:  ES64L-G16RevA.03 25-Dec-2016
                 8-Jan-2019 
 ******************************************
 %NProcShared=4
 Will use up to    4 processors via shared memory.
 -------------------------------------------------------
 #N TD(NStates=10) B3LYP/6-311+G(2d,p) Geom=Connectivity
 -------------------------------------------------------
 1/38=1,57=2,172=1/1;
 2/12=2,17=6,18=5,40=1/2;
 3/5=4,6=6,7=112,11=9,25=1,30=1,74=-5/1,2,3,8;
 4//1;
 5/5=2,38=5/2;
 8/6=1,10=2,108=10/1;
 9/41=10,42=1,70=2/14;
 6/7=2,8=2,9=2,10=2/1;
 99/5=1,9=1/99;
 -----------
 chlorophyll
 -----------
 Symbolic Z-matrix:
 Charge =  0 Multiplicity = 1
 C
 C                    1    B1
 N                    2    B2       1    A1
 C                    3    B3       2    A2       1    D1       0
 C                    1    B4       2    A3       3    D2       0
 C                    5    B5       1    A4       2    D3       0
 H                    6    B6       5    A5       1    D4       0
 H                    6    B7       5    A6       1    D5       0
 H                    6    B8       5    A7       1    D6       0
 H                    5    B9       1    A8       2    D7       0
 C                    4    B10      3    A9       2    D8       0
 C                    11   B11      4    A10      3    D9       0
 N                    12   B12      11   A11      4    D10      0
 C                    13   B13      12   A12      11   D11      0
 C                    14   B14      13   A13      12   D12      0
 C                    12   B15      13   A14      14   D13      0
 C                    16   B16      12   A15      13   D14      0
 H                    17   B17      16   A16      12   D15      0
 H                    17   B18      16   A17      12   D16      0
 H                    17   B19      16   A18      12   D17      0
 C                    15   B20      14   A19      13   D18      0
 C                    21   B21      15   A20      14   D19      0
 H                    22   B22      21   A21      15   D20      0
 H                    22   B23      21   A22      15   D21      0
 H                    21   B24      15   A23      14   D22      0
 C                    14   B25      13   A24      12   D23      0
 C                    26   B26      14   A25      13   D24      0
 N                    27   B27      26   A26      14   D25      0
 C                    28   B28      27   A27      26   D26      0
 C                    29   B29      28   A28      27   D27      0
 C                    30   B30      29   A29      28   D28      0
 N                    31   B31      30   A30      29   D29      0
 C                    32   B32      31   A31      30   D30      0
 C                    33   B33      32   A32      31   D31      0
 C                    34   B34      33   A33      32   D32      0
 C                    35   B35      34   A34      33   D33      0
 O                    36   B36      35   A35      34   D34      0
 C                    33   B37      32   A36      31   D35      0
 C                    38   B38      33   A37      32   D36      0
 C                    39   B39      38   A38      33   D37      0
 H                    40   B40      39   A39      38   D38      0
 H                    40   B41      39   A40      38   D39      0
 H                    40   B42      39   A41      38   D40      0
 C                    35   B43      34   A42      33   D41      0
 O                    44   B44      35   A43      34   D42      0
 C                    45   B45      44   A44      35   D43      0
 H                    46   B46      45   A45      44   D44      0
 H                    46   B47      45   A46      44   D45      0
 H                    46   B48      45   A47      44   D46      0
 O                    44   B49      45   A48      46   D47      0
 H                    35   B50      34   A49      33   D48      0
 H                    30   B51      31   A50      32   D49      0
 C                    29   B52      28   A51      27   D50      0
 C                    27   B53      28   A52      29   D51      0
 C                    54   B54      27   A53      28   D52      0
 H                    55   B55      54   A54      27   D53      0
 H                    55   B56      54   A55      27   D54      0
 H                    55   B57      54   A56      27   D55      0
 C                    53   B58      29   A57      28   D56      0
 C                    59   B59      53   A58      29   D57      0
 H                    60   B60      59   A59      53   D58      0
 H                    60   B61      59   A60      53   D59      0
 H                    60   B62      59   A61      53   D60      0
 H                    59   B63      53   A62      29   D61      0
 H                    59   B64      53   A63      29   D62      0
 H                    26   B65      14   A64      13   D63      0
 H                    11   B66      12   A65      13   D64      0
 C                    1    B67      2    A66      3    D65      0
 C                    68   B68      1    A67      2    D66      0
 C                    69   B69      68   A68      1    D67      0
 O                    70   B70      69   A69      68   D68      0
 C                    71   B71      70   A70      69   D69      0
 C                    72   B72      71   A71      70   D70      0
 C                    73   B73      72   A72      71   D71      0
 C                    74   B74      73   A73      72   D72      0
 C                    75   B75      74   A74      73   D73      0
 C                    76   B76      75   A75      74   D74      0
 C                    77   B77      76   A76      75   D75      0
 C                    78   B78      77   A77      76   D76      0
 C                    79   B79      78   A78      77   D77      0
 C                    80   B80      79   A79      78   D78      0
 C                    81   B81      80   A80      79   D79      0
 C                    82   B82      81   A81      80   D80      0
 C                    83   B83      82   A82      81   D81      0
 C                    84   B84      83   A83      82   D82      0
 C                    85   B85      84   A84      83   D83      0
 C                    86   B86      85   A85      84   D84      0
 H                    87   B87      86   A86      85   D85      0
 H                    87   B88      86   A87      85   D86      0
 H                    87   B89      86   A88      85   D87      0
 C                    86   B90      85   A89      84   D88      0
 H                    91   B91      86   A90      85   D89      0
 H                    91   B92      86   A91      85   D90      0
 H                    91   B93      86   A92      85   D91      0
 H                    86   B94      85   A93      84   D92      0
 H                    85   B95      84   A94      83   D93      0
 H                    85   B96      84   A95      83   D94      0
 H                    84   B97      83   A96      82   D95      0
 H                    84   B98      83   A97      82   D96      0
 H                    83   B99      82   A98      81   D97      0
 H                    83   B100     82   A99      81   D98      0
 C                    82   B101     81   A100     80   D99      0
 H                    102  B102     82   A101     81   D100     0
 H                    102  B103     82   A102     81   D101     0
 H                    102  B104     82   A103     81   D102     0
 H                    82   B105     81   A104     80   D103     0
 H                    81   B106     80   A105     79   D104     0
 H                    81   B107     80   A106     79   D105     0
 H                    80   B108     79   A107     78   D106     0
 H                    80   B109     79   A108     78   D107     0
 H                    79   B110     78   A109     77   D108     0
 H                    79   B111     78   A110     77   D109     0
 C                    78   B112     77   A111     76   D110     0
 H                    113  B113     78   A112     77   D111     0
 H                    113  B114     78   A113     77   D112     0
 H                    113  B115     78   A114     77   D113     0
 H                    78   B116     77   A115     76   D114     0
 H                    77   B117     76   A116     75   D115     0
 H                    77   B118     76   A117     75   D116     0
 H                    76   B119     75   A118     74   D117     0
 H                    76   B120     75   A119     74   D118     0
 H                    75   B121     74   A120     73   D119     0
 H                    75   B122     74   A121     73   D120     0
 C                    74   B123     73   A122     72   D121     0
 H                    124  B124     74   A123     73   D122     0
 H                    124  B125     74   A124     73   D123     0
 H                    124  B126     74   A125     73   D124     0
 H                    73   B127     72   A126     71   D125     0
 H                    72   B128     71   A127     70   D126     0
 H                    72   B129     71   A128     70   D127     0
 O                    70   B130     71   A129     72   D128     0
 H                    69   B131     68   A130     1    D129     0
 H                    69   B132     68   A131     1    D130     0
 H                    68   B133     1    A132     2    D131     0
 H                    68   B134     1    A133     2    D132     0
 H                    1    B135     2    A134     3    D133     0
 Mg                   32   B136     33   A135     34   D134     0
       Variables:
  B1                    1.51441                  
  B2                    1.44207                  
  B3                    1.3076                   
  B4                    1.56011                  
  B5                    1.5146                   
  B6                    1.0983                   
  B7                    1.09803                  
  B8                    1.0981                   
  B9                    1.12227                  
  B10                   1.44964                  
  B11                   1.34525                  
  B12                   1.44532                  
  B13                   1.3208                   
  B14                   1.49254                  
  B15                   1.48445                  
  B16                   1.46876                  
  B17                   1.10174                  
  B18                   1.09942                  
  B19                   1.1022                   
  B20                   1.44305                  
  B21                   1.33224                  
  B22                   1.09117                  
  B23                   1.08532                  
  B24                   1.10378                  
  B25                   1.44894                  
  B26                   1.34569                  
  B27                   1.44387                  
  B28                   1.32061                  
  B29                   1.44849                  
  B30                   1.34642                  
  B31                   1.45852                  
  B32                   1.30994                  
  B33                   1.45516                  
  B34                   1.51712                  
  B35                   1.56198                  
  B36                   1.2095                   
  B37                   1.47878                  
  B38                   1.35982                  
  B39                   1.46696                  
  B40                   1.0986                   
  B41                   1.09776                  
  B42                   1.09946                  
  B43                   1.5204                   
  B44                   1.36135                  
  B45                   1.41314                  
  B46                   1.09292                  
  B47                   1.09555                  
  B48                   1.09514                  
  B49                   1.21708                  
  B50                   1.11852                  
  B51                   1.10506                  
  B52                   1.4833                   
  B53                   1.48428                  
  B54                   1.46963                  
  B55                   1.09808                  
  B56                   1.09907                  
  B57                   1.09953                  
  B58                   1.47824                  
  B59                   1.51449                  
  B60                   1.09747                  
  B61                   1.09894                  
  B62                   1.09724                  
  B63                   1.10857                  
  B64                   1.11433                  
  B65                   1.10628                  
  B66                   1.10531                  
  B67                   1.52789                  
  B68                   1.52194                  
  B69                   1.50986                  
  B70                   1.36483                  
  B71                   1.41978                  
  B72                   1.4928                   
  B73                   1.34031                  
  B74                   1.49965                  
  B75                   1.5237                   
  B76                   1.52249                  
  B77                   1.52973                  
  B78                   1.53164                  
  B79                   1.52333                  
  B80                   1.52242                  
  B81                   1.52919                  
  B82                   1.52907                  
  B83                   1.52006                  
  B84                   1.51954                  
  B85                   1.52999                  
  B86                   1.51911                  
  B87                   1.09774                  
  B88                   1.09848                  
  B89                   1.09784                  
  B90                   1.52067                  
  B91                   1.09811                  
  B92                   1.09671                  
  B93                   1.10332                  
  B94                   1.11793                  
  B95                   1.10909                  
  B96                   1.10811                  
  B97                   1.10815                  
  B98                   1.12072                  
  B99                   1.1091                   
  B100                  1.1082                   
  B101                  1.5219                   
  B102                  1.10235                  
  B103                  1.10164                  
  B104                  1.09893                  
  B105                  1.11842                  
  B106                  1.10819                  
  B107                  1.11001                  
  B108                  1.12077                  
  B109                  1.10738                  
  B110                  1.10843                  
  B111                  1.10866                  
  B112                  1.52082                  
  B113                  1.10297                  
  B114                  1.09647                  
  B115                  1.10328                  
  B116                  1.12108                  
  B117                  1.11131                  
  B118                  1.10937                  
  B119                  1.10689                  
  B120                  1.11967                  
  B121                  1.10961                  
  B122                  1.10923                  
  B123                  1.48661                  
  B124                  1.10449                  
  B125                  1.09919                  
  B126                  1.09863                  
  B127                  1.10344                  
  B128                  1.10494                  
  B129                  1.11353                  
  B130                  1.21399                  
  B131                  1.11414                  
  B132                  1.11201                  
  B133                  1.10852                  
  B134                  1.10891                  
  B135                  1.11895                  
  B136                 13.91399                  
  A1                  108.61872                  
  A2                  110.80263                  
  A3                  103.02108                  
  A4                  112.28322                  
  A5                  110.88962                  
  A6                  112.12395                  
  A7                  110.91204                  
  A8                  110.05993                  
  A9                  125.63136                  
  A10                 127.58922                  
  A11                 127.52245                  
  A12                 108.61071                  
  A13                 110.1978                   
  A14                 106.70916                  
  A15                 122.49279                  
  A16                 110.65619                  
  A17                 110.51415                  
  A18                 111.53889                  
  A19                 121.87857                  
  A20                 124.87514                  
  A21                 122.91514                  
  A22                 122.44619                  
  A23                 113.96978                  
  A24                 127.02331                  
  A25                 126.79717                  
  A26                 124.75887                  
  A27                 108.94641                  
  A28                 125.5994                   
  A29                 124.72247                  
  A30                 123.49068                  
  A31                 106.99197                  
  A32                 137.45482                  
  A33                 106.69924                  
  A34                 106.5973                   
  A35                 124.58759                  
  A36                 111.43291                  
  A37                 108.1298                   
  A38                 129.22892                  
  A39                 111.42961                  
  A40                 111.8057                   
  A41                 110.05716                  
  A42                 113.83381                  
  A43                 114.79173                  
  A44                 118.59511                  
  A45                 102.14751                  
  A46                 111.61625                  
  A47                 111.83668                  
  A48                 119.43009                  
  A49                 109.19124                  
  A50                 121.03825                  
  A51                 109.95667                  
  A52                 106.31786                  
  A53                 124.79216                  
  A54                 111.79025                  
  A55                 111.19432                  
  A56                 110.46912                  
  A57                 123.0412                   
  A58                 112.04886                  
  A59                 111.69827                  
  A60                 111.29747                  
  A61                 111.09247                  
  A62                 109.36088                  
  A63                 108.33127                  
  A64                 113.74736                  
  A65                 116.61326                  
  A66                 112.11139                  
  A67                 110.6341                   
  A68                 111.3739                   
  A69                 124.73496                  
  A70                 120.02162                  
  A71                 112.84312                  
  A72                 124.48972                  
  A73                 121.12596                  
  A74                 114.55884                  
  A75                 113.57095                  
  A76                 112.60864                  
  A77                 112.09182                  
  A78                 114.47563                  
  A79                 113.13078                  
  A80                 111.11699                  
  A81                 110.68409                  
  A82                 111.03253                  
  A83                 112.04078                  
  A84                 111.30943                  
  A85                 110.43102                  
  A86                 111.16979                  
  A87                 111.63553                  
  A88                 111.47737                  
  A89                 110.54639                  
  A90                 111.71732                  
  A91                 111.61998                  
  A92                 110.29262                  
  A93                 108.27736                  
  A94                 110.27059                  
  A95                 109.94205                  
  A96                 110.08337                  
  A97                 109.52944                  
  A98                 109.67234                  
  A99                 110.12649                  
  A100                110.32188                  
  A101                110.46974                  
  A102                110.55969                  
  A103                111.74433                  
  A104                108.36222                  
  A105                109.9047                   
  A106                110.53614                  
  A107                109.67524                  
  A108                109.87151                  
  A109                107.84574                  
  A110                109.44762                  
  A111                110.33799                  
  A112                110.37274                  
  A113                111.68703                  
  A114                110.92519                  
  A115                107.327                    
  A116                109.25151                  
  A117                110.11767                  
  A118                108.88379                  
  A119                109.92084                  
  A120                109.79229                  
  A121                107.08846                  
  A122                123.43007                  
  A123                112.27048                  
  A124                110.90111                  
  A125                110.31671                  
  A126                116.63856                  
  A127                101.32769                  
  A128                111.46654                  
  A129                108.5953                   
  A130                108.82622                  
  A131                110.64352                  
  A132                110.48757                  
  A133                109.47682                  
  A134                110.27939                  
  A135                 97.3128                   
  D1                   10.07385                  
  D2                  -13.57198                  
  D3                 -108.69584                  
  D4                  -63.97296                  
  D5                   56.21689                  
  D6                  176.34567                  
  D7                  129.73955                  
  D8                 -179.78248                  
  D9                  -18.06873                  
  D10                  -0.21665                  
  D11                 175.57697                  
  D12                   1.22545                  
  D13                  -2.38413                  
  D14                -176.95895                  
  D15                 -18.75932                  
  D16                 100.47131                  
  D17                -140.34409                  
  D18                -179.04589                  
  D19                 172.43291                  
  D20                   0.1059                   
  D21                -179.18789                  
  D22                  -6.39331                  
  D23                -178.17124                  
  D24                   0.34558                  
  D25                  -1.68775                  
  D26                 177.09648                  
  D27                 178.88356                  
  D28                  14.83628                  
  D29                   2.97474                  
  D30                -171.8289                   
  D31                 174.04316                  
  D32                 178.15363                  
  D33                   6.36164                  
  D34                 173.77586                  
  D35                  -2.32535                  
  D36                   0.03214                  
  D37                -178.55599                  
  D38                -139.56493                  
  D39                 -18.47616                  
  D40                 101.16593                  
  D41                -114.36431                  
  D42                  52.86857                  
  D43                -179.60482                  
  D44                 179.38253                  
  D45                  61.22408                  
  D46                 -62.3192                   
  D47                   1.27095                  
  D48                 124.48621                  
  D49                -177.96341                  
  D50                   1.33333                  
  D51                  -1.62939                  
  D52                -179.42835                  
  D53                  29.57169                  
  D54                 150.3419                   
  D55                 -90.45596                  
  D56                 178.62029                  
  D57                 110.28143                  
  D58                 -60.38075                  
  D59                  59.57582                  
  D60                 179.49911                  
  D61                -127.17649                  
  D62                 -11.72552                  
  D63                 179.35835                  
  D64                -179.91415                  
  D65                 106.11167                  
  D66                -173.85287                  
  D67                -175.89116                  
  D68                  91.32314                  
  D69                  -1.5358                   
  D70                  75.73872                  
  D71                -134.27461                  
  D72                 179.97768                  
  D73                  39.01645                  
  D74                  88.71275                  
  D75                 -78.70261                  
  D76                 169.64951                  
  D77                  66.808                    
  D78                 -98.63824                  
  D79                 162.278                    
  D80                 172.46865                  
  D81                -172.70391                  
  D82                -170.63701                  
  D83                 172.03476                  
  D84                 172.25277                  
  D85                 179.6516                   
  D86                  59.74737                  
  D87                 -60.37304                  
  D88                 -65.13903                  
  D89                 -69.14184                  
  D90                 170.36256                  
  D91                  50.16947                  
  D92                  53.57129                  
  D93                  50.17212                  
  D94                 -65.94731                  
  D95                  66.45587                  
  D96                 -48.89257                  
  D97                  65.10574                  
  D98                 -50.75347                  
  D99                 -65.00633                  
  D100                 59.68729                  
  D101               -179.34382                  
  D102                -59.6066                   
  D103                 53.75527                  
  D104                -75.53807                  
  D105                 40.45511                  
  D106                 23.85738                  
  D107                139.06672                  
  D108               -171.797                    
  D109                -57.49864                  
  D110                -65.93008                  
  D111                 48.62545                  
  D112                168.89182                  
  D113                -70.94851                  
  D114                 51.87556                  
  D115                159.70095                  
  D116                 44.1131                   
  D117               -149.78183                  
  D118                -34.04878                  
  D119                163.20393                  
  D120                -82.72804                  
  D121                  1.64221                  
  D122                  5.43134                  
  D123                125.80972                  
  D124               -114.63591                  
  D125                 48.48068                  
  D126               -166.33423                  
  D127                -51.46147                  
  D128                178.79215                  
  D129                 63.0748                   
  D130                -52.74556                  
  D131                -51.74843                  
  D132                 64.3276                   
  D133               -132.09455                  
  D134                 96.41035                  
 
 Stoichiometry    C55H72MgN4O5
 Framework group  C1[X(C55H72MgN4O5)]
 Deg. of freedom   405
 Full point group                 C1      NOp   1
 Largest Abelian subgroup         C1      NOp   1
 Largest concise Abelian subgroup C1      NOp   1
                         Standard orientation:                         
 ---------------------------------------------------------------------
 Center     Atomic      Atomic             Coordinates (Angstroms)
 Number     Number       Type             X           Y           Z
 ---------------------------------------------------------------------
      1          6           0       -1.102435   -0.886587    1.001617
      2          6           0       -2.345607   -0.848052    0.137630
      3          7           0       -3.489935   -0.627505    0.987005
      4          6           0       -3.114608   -0.315555    2.200118
      5          6           0       -1.604003   -0.317360    2.364827
      6          6           0       -1.062802    1.069836    2.641976
      7          1           0        0.030427    1.050219    2.745543
      8          1           0       -1.305898    1.776856    1.837801
      9          1           0       -1.480143    1.474477    3.573598
     10          1           0       -1.301511   -1.000782    3.202036
     11          6           0       -4.000862   -0.032441    3.311809
     12          6           0       -5.305224    0.292484    3.259262
     13          7           0       -6.128920    0.439921    2.080818
     14          6           0       -7.372151    0.671706    2.461824
     15          6           0       -7.453490    0.723612    3.951238
     16          6           0       -6.189492    0.521347    4.429425
     17          6           0       -5.688027    0.518133    5.809921
     18          1           0       -4.711311    0.011633    5.867446
     19          1           0       -5.553315    1.546983    6.173293
     20          1           0       -6.392700    0.019542    6.495257
     21          6           0       -8.702882    0.943461    4.639048
     22          6           0       -8.871507    0.859191    5.957881
     23          1           0       -8.060292    0.612841    6.644825
     24          1           0       -9.833765    1.020193    6.433335
     25          1           0       -9.548590    1.176532    3.969133
     26          6           0       -8.528908    0.844641    1.606588
     27          6           0       -8.551946    0.794594    0.262025
     28          7           0       -7.392923    0.588626   -0.574045
     29          6           0       -7.778943    0.531948   -1.835707
     30          6           0       -6.905161    0.358223   -2.977829
     31          6           0       -5.624106   -0.050311   -2.908259
     32          7           0       -4.967791   -0.432695   -1.663143
     33          6           0       -3.697601   -0.600663   -1.935832
     34          6           0       -2.470043   -0.869679   -1.202200
     35          6           0       -1.361642   -0.979146   -2.232299
     36          6           0       -1.991823   -0.593433   -3.608484
     37          8           0       -1.369111   -0.467902   -4.637742
     38          6           0       -3.422842   -0.400608   -3.375022
     39          6           0       -4.596032   -0.096011   -3.991434
     40          6           0       -4.858164    0.162354   -5.411472
     41          1           0       -5.565964    0.991955   -5.544521
     42          1           0       -3.938273    0.408102   -5.957817
     43          1           0       -5.298311   -0.728613   -5.881855
     44          6           0       -0.747369   -2.366587   -2.328730
     45          8           0       -1.641950   -3.374990   -2.518822
     46          6           0       -1.158395   -4.699585   -2.611450
     47          1           0       -2.079660   -5.271788   -2.746858
     48          1           0       -0.645611   -5.007146   -1.693474
     49          1           0       -0.493076   -4.831155   -3.471319
     50          8           0        0.440438   -2.624625   -2.266957
     51          1           0       -0.550146   -0.252637   -1.977841
     52          1           0       -7.372058    0.606771   -3.948079
     53          6           0       -9.245923    0.732016   -1.925773
     54          6           0       -9.714359    0.899289   -0.654988
     55          6           0      -11.102183    1.124810   -0.227334
     56          1           0      -11.152624    1.702872    0.704911
     57          1           0      -11.671117    1.668267   -0.994746
     58          1           0      -11.612391    0.165994   -0.056077
     59          6           0       -9.979244    0.752921   -3.209129
     60          6           0      -10.860923   -0.466550   -3.380066
     61          1           0      -10.276128   -1.395144   -3.366748
     62          1           0      -11.605445   -0.536843   -2.574823
     63          1           0      -11.404090   -0.430694   -4.332752
     64          1           0      -10.587707    1.677596   -3.269703
     65          1           0       -9.235551    0.813213   -4.036790
     66          1           0       -9.470626    1.018067    2.160614
     67          1           0       -3.546865   -0.097273    4.317487
     68          6           0       -0.556754   -2.304753    1.161259
     69          6           0        0.597338   -2.326849    2.153166
     70          6           0        1.214320   -3.701562    2.248994
     71          8           0        2.262466   -4.138046    1.491613
     72          6           0        2.830201   -3.287269    0.506914
     73          6           0        3.693287   -2.218977    1.091960
     74          6           0        3.651328   -0.928185    0.733442
     75          6           0        4.554831    0.083698    1.372761
     76          6           0        5.969878   -0.412289    1.643518
     77          6           0        6.924588   -0.195324    0.477573
     78          6           0        6.750361   -1.238960   -0.627210
     79          6           0        7.526560   -0.870616   -1.895181
     80          6           0        9.041506   -0.896593   -1.737704
     81          6           0        9.641819    0.482158   -1.500171
     82          6           0       11.054171    0.376212   -0.923582
     83          6           0       11.717401    1.752613   -0.862867
     84          6           0       13.178800    1.636757   -0.461020
     85          6           0       13.799929    2.993062   -0.171842
     86          6           0       15.204381    2.847190    0.417315
     87          6           0       15.879516    4.204077    0.520982
     88          1           0       16.886628    4.114148    0.948376
     89          1           0       15.310888    4.891468    1.161931
     90          1           0       15.979167    4.679719   -0.463444
     91          6           0       15.144172    2.176511    1.780769
     92          1           0       14.680738    2.827681    2.533797
     93          1           0       16.143840    1.909303    2.144152
     94          1           0       14.540990    1.254225    1.727232
     95          1           0       15.807090    2.202233   -0.268646
     96          1           0       13.160213    3.567062    0.529136
     97          1           0       13.841357    3.595600   -1.100893
     98          1           0       13.751481    1.116434   -1.254301
     99          1           0       13.267505    0.983333    0.445174
    100          1           0       11.170864    2.399140   -0.146346
    101          1           0       11.635428    2.259061   -1.845156
    102          6           0       11.014044   -0.255613    0.460391
    103          1           0       10.574341   -1.265243    0.410641
    104          1           0       12.028567   -0.323144    0.884411
    105          1           0       10.401821    0.332031    1.158608
    106          1           0       11.661451   -0.278463   -1.596986
    107          1           0        9.658648    1.054859   -2.448758
    108          1           0        9.002615    1.071553   -0.810125
    109          1           0        9.321337   -1.576232   -0.891595
    110          1           0        9.505811   -1.345514   -2.637252
    111          1           0        7.235550   -1.584993   -2.691171
    112          1           0        7.195528    0.124553   -2.254610
    113          6           0        7.149555   -2.616344   -0.120899
    114          1           0        6.670650   -2.821762    0.851213
    115          1           0        6.852720   -3.406860   -0.820341
    116          1           0        8.242012   -2.683852    0.017691
    117          1           0        5.661851   -1.263896   -0.894305
    118          1           0        7.971108   -0.227077    0.850121
    119          1           0        6.787855    0.821948    0.056661
    120          1           0        6.368076    0.109698    2.534687
    121          1           0        5.948946   -1.500440    1.906466
    122          1           0        4.589317    1.002347    0.751372
    123          1           0        4.078770    0.388926    2.327014
    124          6           0        2.704555   -0.389532   -0.278227
    125          1           0        1.983624   -1.151384   -0.624269
    126          1           0        2.127618    0.450894    0.132937
    127          1           0        3.252742   -0.025701   -1.158065
    128          1           0        4.440790   -2.539861    1.837514
    129          1           0        3.443602   -4.002452   -0.070267
    130          1           0        2.050718   -2.871928   -0.171207
    131          8           0        0.880718   -4.595193    2.999926
    132          1           0        0.217853   -2.015321    3.153288
    133          1           0        1.368154   -1.575319    1.874587
    134          1           0       -1.358299   -2.993511    1.495855
    135          1           0       -0.224427   -2.686305    0.174513
    136          1           0       -0.305467   -0.234536    0.563749
    137         12           0       -4.887779   13.477559   -1.350917
 ---------------------------------------------------------------------
 Rotational constants (GHZ):           0.0392727           0.0096203           0.0093247
 Standard basis: 6-311+G(2d,p) (5D, 7F)
 There are  2325 symmetry adapted cartesian basis functions of A   symmetry.
 There are  2195 symmetry adapted basis functions of A   symmetry.
  2195 basis functions,  3320 primitive gaussians,  2325 cartesian basis functions
   241 alpha electrons      241 beta electrons
       nuclear repulsion energy      9155.5808262447 Hartrees.
 NAtoms=  137 NActive=  137 NUniq=  137 SFac= 1.00D+00 NAtFMM=   60 NAOKFM=T Big=T
 Integral buffers will be    131072 words long.
 Regular integral format.
 Two-electron integral symmetry is turned on.
 One-electron integrals computed using PRISM.
 NBasis=  2195 RedAO= T EigKep=  1.14D-06  NBF=  2195
 NBsUse=  2176 1.00D-06 EigRej=  9.78D-07 NBFU=  2176
 ExpMin= 1.46D-02 ExpMax= 4.39D+04 ExpMxC= 1.51D+03 IAcc=3 IRadAn=         5 AccDes= 0.00D+00
 Harris functional with IExCor=  402 and IRadAn=       5 diagonalized for initial guess.
 HarFok:  IExCor=  402 AccDes= 0.00D+00 IRadAn=         5 IDoV= 1 UseB2=F ITyADJ=14
 ICtDFT=  3500011 ScaDFX=  1.000000  1.000000  1.000000  1.000000
 FoFCou: FMM=F IPFlag=           0 FMFlag=      100000 FMFlg1=        2001
         NFxFlg=           0 DoJE=T BraDBF=F KetDBF=T FulRan=T
         wScrn=  0.000000 ICntrl=       500 IOpCl=  0 I1Cent=   200000004 NGrid=           0
         NMat0=    1 NMatS0=      1 NMatT0=    0 NMatD0=    1 NMtDS0=    0 NMtDT0=    0
 Petite list used in FoFCou.
 Requested convergence on RMS density matrix=1.00D-08 within 128 cycles.
 Requested convergence on MAX density matrix=1.00D-06.
 Requested convergence on             energy=1.00D-06.
 No special actions if energy rises.
 Rare condition: small coef for last iteration:  0.000D+00
 EnCoef did   100 forward-backward iterations
 EnCoef did   100 forward-backward iterations
 EnCoef did     2 forward-backward iterations
 EnCoef did     2 forward-backward iterations
 Restarting incremental Fock formation.
 SCF Done:  E(RB3LYP) =  -2935.03002179     A.U. after   26 cycles
            NFock= 26  Conv=0.36D-08     -V/T= 2.0044
 DoSCS=F DFT=T ScalE2(SS,OS)=  1.000000  1.000000
 ExpMin= 1.46D-02 ExpMax= 4.39D+04 ExpMxC= 1.51D+03 IAcc=3 IRadAn=         5 AccDes= 0.00D+00
 HarFok:  IExCor=  205 AccDes= 0.00D+00 IRadAn=         5 IDoV=-2 UseB2=F ITyADJ=14
 ICtDFT= 12500011 ScaDFX=  1.000000  1.000000  1.000000  1.000000
 GSVD:  LWork=       -5313 too small for GESVD, short by       24840 words or       24840 for optimal perf.
 Range of M.O.s used for correlation:    70  2176
 NBasis=  2195 NAE=   241 NBE=   241 NFC=    69 NFV=     0
 NROrb=   2107 NOA=   172 NOB=   172 NVA=  1935 NVB=  1935

 **** Warning!!: The largest alpha MO coefficient is  0.78079130D+02


 **** Warning!!: The smallest alpha delta epsilon is  0.49533576D-01

 Orbital symmetries:
       Occupied  (A) (A) (A) (A) (A) (A) (A) (A) (A) (A) (A) (A)
                 (A) (A) (A) (A) (A) (A) (A) (A) (A) (A) (A) (A)
                 (A) (A) (A) (A) (A) (A) (A) (A) (A) (A) (A) (A)
                 (A) (A) (A) (A) (A) (A) (A) (A) (A) (A) (A) (A)
                 (A) (A) (A) (A) (A) (A) (A) (A) (A) (A) (A) (A)
                 (A) (A) (A) (A) (A) (A) (A) (A) (A) (A) (A) (A)
                 (A) (A) (A) (A) (A) (A) (A) (A) (A) (A) (A) (A)
                 (A) (A) (A) (A) (A) (A) (A) (A) (A) (A) (A) (A)
                 (A) (A) (A) (A) (A) (A) (A) (A) (A) (A) (A) (A)
                 (A) (A) (A) (A) (A) (A) (A) (A) (A) (A) (A) (A)
                 (A) (A) (A) (A) (A) (A) (A) (A) (A) (A) (A) (A)
                 (A) (A) (A) (A) (A) (A) (A) (A) (A) (A) (A) (A)
                 (A) (A) (A) (A) (A) (A) (A) (A) (A) (A) (A) (A)
                 (A) (A) (A) (A) (A) (A) (A) (A) (A) (A) (A) (A)
                 (A) (A) (A) (A) (A) (A) (A) (A) (A) (A) (A) (A)
                 (A) (A) (A) (A) (A) (A) (A) (A) (A) (A) (A) (A)
                 (A) (A) (A) (A) (A) (A) (A) (A) (A) (A) (A) (A)
                 (A) (A) (A) (A) (A) (A) (A) (A) (A) (A) (A) (A)
                 (A) (A) (A) (A) (A) (A) (A) (A) (A) (A) (A) (A)
                 (A) (A) (A) (A) (A) (A) (A) (A) (A) (A) (A) (A)
                 (A)
       Virtual   (A) (A) (A) (A) (A) (A) (A) (A) (A) (A) (A) (A)
                 (A) (A) (A) (A) (A) (A) (A) (A) (A) (A) (A) (A)
                 (A) (A) (A) (A) (A) (A) (A) (A) (A) (A) (A) (A)
                 (A) (A) (A) (A) (A) (A) (A) (A) (A) (A) (A) (A)
                 (A) (A) (A) (A) (A) (A) (A) (A) (A) (A) (A) (A)
                 (A) (A) (A) (A) (A) (A) (A) (A) (A) (A) (A) (A)
                 (A) (A) (A) (A) (A) (A) (A) (A) (A) (A) (A) (A)
                 (A) (A) (A) (A) (A) (A) (A) (A) (A) (A) (A) (A)
                 (A) (A) (A) (A) (A) (A) (A) (A) (A) (A) (A) (A)
                 (A) (A) (A) (A) (A) (A) (A) (A) (A) (A) (A) (A)
                 (A) (A) (A) (A) (A) (A) (A) (A) (A) (A) (A) (A)
                 (A) (A) (A) (A) (A) (A) (A) (A) (A) (A) (A) (A)
                 (A) (A) (A) (A) (A) (A) (A) (A) (A) (A) (A) (A)
                 (A) (A) (A) (A) (A) (A) (A) (A) (A) (A) (A) (A)
                 (A) (A) (A) (A) (A) (A) (A) (A) (A) (A) (A) (A)
                 (A) (A) (A) (A) (A) (A) (A) (A) (A) (A) (A) (A)
                 (A) (A) (A) (A) (A) (A) (A) (A) (A) (A) (A) (A)
                 (A) (A) (A) (A) (A) (A) (A) (A) (A) (A) (A) (A)
                 (A) (A) (A) (A) (A) (A) (A) (A) (A) (A) (A) (A)
                 (A) (A) (A) (A) (A) (A) (A) (A) (A) (A) (A) (A)
                 (A) (A) (A) (A) (A) (A) (A) (A) (A) (A) (A) (A)
                 (A) (A) (A) (A) (A) (A) (A) (A) (A) (A) (A) (A)
                 (A) (A) (A) (A) (A) (A) (A) (A) (A) (A) (A) (A)
                 (A) (A) (A) (A) (A) (A) (A) (A) (A) (A) (A) (A)
                 (A) (A) (A) (A) (A) (A) (A) (A) (A) (A) (A) (A)
                 (A) (A) (A) (A) (A) (A) (A) (A) (A) (A) (A) (A)
                 (A) (A) (A) (A) (A) (A) (A) (A) (A) (A) (A) (A)
                 (A) (A) (A) (A) (A) (A) (A) (A) (A) (A) (A) (A)
                 (A) (A) (A) (A) (A) (A) (A) (A) (A) (A) (A) (A)
                 (A) (A) (A) (A) (A) (A) (A) (A) (A) (A) (A) (A)
                 (A) (A) (A) (A) (A) (A) (A) (A) (A) (A) (A) (A)
                 (A) (A) (A) (A) (A) (A) (A) (A) (A) (A) (A) (A)
                 (A) (A) (A) (A) (A) (A) (A) (A) (A) (A) (A) (A)
                 (A) (A) (A) (A) (A) (A) (A) (A) (A) (A) (A) (A)
                 (A) (A) (A) (A) (A) (A) (A) (A) (A) (A) (A) (A)
                 (A) (A) (A) (A) (A) (A) (A) (A) (A) (A) (A) (A)
                 (A) (A) (A) (A) (A) (A) (A) (A) (A) (A) (A) (A)
                 (A) (A) (A) (A) (A) (A) (A) (A) (A) (A) (A) (A)
                 (A) (A) (A) (A) (A) (A) (A) (A) (A) (A) (A) (A)
                 (A) (A) (A) (A) (A) (A) (A) (A) (A) (A) (A) (A)
                 (A) (A) (A) (A) (A) (A) (A) (A) (A) (A) (A) (A)
                 (A) (A) (A) (A) (A) (A) (A) (A) (A) (A) (A) (A)
                 (A) (A) (A) (A) (A) (A) (A) (A) (A) (A) (A) (A)
                 (A) (A) (A) (A) (A) (A) (A) (A) (A) (A) (A) (A)
                 (A) (A) (A) (A) (A) (A) (A) (A) (A) (A) (A) (A)
                 (A) (A) (A) (A) (A) (A) (A) (A) (A) (A) (A) (A)
                 (A) (A) (A) (A) (A) (A) (A) (A) (A) (A) (A) (A)
                 (A) (A) (A) (A) (A) (A) (A) (A) (A) (A) (A) (A)
                 (A) (A) (A) (A) (A) (A) (A) (A) (A) (A) (A) (A)
                 (A) (A) (A) (A) (A) (A) (A) (A) (A) (A) (A) (A)
                 (A) (A) (A) (A) (A) (A) (A) (A) (A) (A) (A) (A)
                 (A) (A) (A) (A) (A) (A) (A) (A) (A) (A) (A) (A)
                 (A) (A) (A) (A) (A) (A) (A) (A) (A) (A) (A) (A)
                 (A) (A) (A) (A) (A) (A) (A) (A) (A) (A) (A) (A)
                 (A) (A) (A) (A) (A) (A) (A) (A) (A) (A) (A) (A)
                 (A) (A) (A) (A) (A) (A) (A) (A) (A) (A) (A) (A)
                 (A) (A) (A) (A) (A) (A) (A) (A) (A) (A) (A) (A)
                 (A) (A) (A) (A) (A) (A) (A) (A) (A) (A) (A) (A)
                 (A) (A) (A) (A) (A) (A) (A) (A) (A) (A) (A) (A)
                 (A) (A) (A) (A) (A) (A) (A) (A) (A) (A) (A) (A)
                 (A) (A) (A) (A) (A) (A) (A) (A) (A) (A) (A) (A)
                 (A) (A) (A) (A) (A) (A) (A) (A) (A) (A) (A) (A)
                 (A) (A) (A) (A) (A) (A) (A) (A) (A) (A) (A) (A)
                 (A) (A) (A) (A) (A) (A) (A) (A) (A) (A) (A) (A)
                 (A) (A) (A) (A) (A) (A) (A) (A) (A) (A) (A) (A)
                 (A) (A) (A) (A) (A) (A) (A) (A) (A) (A) (A) (A)
                 (A) (A) (A) (A) (A) (A) (A) (A) (A) (A) (A) (A)
                 (A) (A) (A) (A) (A) (A) (A) (A) (A) (A) (A) (A)
                 (A) (A) (A) (A) (A) (A) (A) (A) (A) (A) (A) (A)
                 (A) (A) (A) (A) (A) (A) (A) (A) (A) (A) (A) (A)
                 (A) (A) (A) (A) (A) (A) (A) (A) (A) (A) (A) (A)
                 (A) (A) (A) (A) (A) (A) (A) (A) (A) (A) (A) (A)
                 (A) (A) (A) (A) (A) (A) (A) (A) (A) (A) (A) (A)
                 (A) (A) (A) (A) (A) (A) (A) (A) (A) (A) (A) (A)
                 (A) (A) (A) (A) (A) (A) (A) (A) (A) (A) (A) (A)
                 (A) (A) (A) (A) (A) (A) (A) (A) (A) (A) (A) (A)
                 (A) (A) (A) (A) (A) (A) (A) (A) (A) (A) (A) (A)
                 (A) (A) (A) (A) (A) (A) (A) (A) (A) (A) (A) (A)
                 (A) (A) (A) (A) (A) (A) (A) (A) (A) (A) (A) (A)
                 (A) (A) (A) (A) (A) (A) (A) (A) (A) (A) (A) (A)
                 (A) (A) (A) (A) (A) (A) (A) (A) (A) (A) (A) (A)
                 (A) (A) (A) (A) (A) (A) (A) (A) (A) (A) (A) (A)
                 (A) (A) (A) (A) (A) (A) (A) (A) (A) (A) (A) (A)
                 (A) (A) (A) (A) (A) (A) (A) (A) (A) (A) (A) (A)
                 (A) (A) (A) (A) (A) (A) (A) (A) (A) (A) (A) (A)
                 (A) (A) (A) (A) (A) (A) (A) (A) (A) (A) (A) (A)
                 (A) (A) (A) (A) (A) (A) (A) (A) (A) (A) (A) (A)
                 (A) (A) (A) (A) (A) (A) (A) (A) (A) (A) (A) (A)
                 (A) (A) (A) (A) (A) (A) (A) (A) (A) (A) (A) (A)
                 (A) (A) (A) (A) (A) (A) (A) (A) (A) (A) (A) (A)
                 (A) (A) (A) (A) (A) (A) (A) (A) (A) (A) (A) (A)
                 (A) (A) (A) (A) (A) (A) (A) (A) (A) (A) (A) (A)
                 (A) (A) (A) (A) (A) (A) (A) (A) (A) (A) (A) (A)
                 (A) (A) (A) (A) (A) (A) (A) (A) (A) (A) (A) (A)
                 (A) (A) (A) (A) (A) (A) (A) (A) (A) (A) (A) (A)
                 (A) (A) (A) (A) (A) (A) (A) (A) (A) (A) (A) (A)
                 (A) (A) (A) (A) (A) (A) (A) (A) (A) (A) (A) (A)
                 (A) (A) (A) (A) (A) (A) (A) (A) (A) (A) (A) (A)
                 (A) (A) (A) (A) (A) (A) (A) (A) (A) (A) (A) (A)
                 (A) (A) (A) (A) (A) (A) (A) (A) (A) (A) (A) (A)
                 (A) (A) (A) (A) (A) (A) (A) (A) (A) (A) (A) (A)
                 (A) (A) (A) (A) (A) (A) (A) (A) (A) (A) (A) (A)
                 (A) (A) (A) (A) (A) (A) (A) (A) (A) (A) (A) (A)
                 (A) (A) (A) (A) (A) (A) (A) (A) (A) (A) (A) (A)
                 (A) (A) (A) (A) (A) (A) (A) (A) (A) (A) (A) (A)
                 (A) (A) (A) (A) (A) (A) (A) (A) (A) (A) (A) (A)
                 (A) (A) (A) (A) (A) (A) (A) (A) (A) (A) (A) (A)
                 (A) (A) (A) (A) (A) (A) (A) (A) (A) (A) (A) (A)
                 (A) (A) (A) (A) (A) (A) (A) (A) (A) (A) (A) (A)
                 (A) (A) (A) (A) (A) (A) (A) (A) (A) (A) (A) (A)
                 (A) (A) (A) (A) (A) (A) (A) (A) (A) (A) (A) (A)
                 (A) (A) (A) (A) (A) (A) (A) (A) (A) (A) (A) (A)
                 (A) (A) (A) (A) (A) (A) (A) (A) (A) (A) (A) (A)
                 (A) (A) (A) (A) (A) (A) (A) (A) (A) (A) (A) (A)
                 (A) (A) (A) (A) (A) (A) (A) (A) (A) (A) (A) (A)
                 (A) (A) (A) (A) (A) (A) (A) (A) (A) (A) (A) (A)
                 (A) (A) (A) (A) (A) (A) (A) (A) (A) (A) (A) (A)
                 (A) (A) (A) (A) (A) (A) (A) (A) (A) (A) (A) (A)
                 (A) (A) (A) (A) (A) (A) (A) (A) (A) (A) (A) (A)
                 (A) (A) (A) (A) (A) (A) (A) (A) (A) (A) (A) (A)
                 (A) (A) (A) (A) (A) (A) (A) (A) (A) (A) (A) (A)
                 (A) (A) (A) (A) (A) (A) (A) (A) (A) (A) (A) (A)
                 (A) (A) (A) (A) (A) (A) (A) (A) (A) (A) (A) (A)
                 (A) (A) (A) (A) (A) (A) (A) (A) (A) (A) (A) (A)
                 (A) (A) (A) (A) (A) (A) (A) (A) (A) (A) (A) (A)
                 (A) (A) (A) (A) (A) (A) (A) (A) (A) (A) (A) (A)
                 (A) (A) (A) (A) (A) (A) (A) (A) (A) (A) (A) (A)
                 (A) (A) (A) (A) (A) (A) (A) (A) (A) (A) (A) (A)
                 (A) (A) (A) (A) (A) (A) (A) (A) (A) (A) (A) (A)
                 (A) (A) (A) (A) (A) (A) (A) (A) (A) (A) (A) (A)
                 (A) (A) (A) (A) (A) (A) (A) (A) (A) (A) (A) (A)
                 (A) (A) (A) (A) (A) (A) (A) (A) (A) (A) (A) (A)
                 (A) (A) (A) (A) (A) (A) (A) (A) (A) (A) (A) (A)
                 (A) (A) (A) (A) (A) (A) (A) (A) (A) (A) (A) (A)
                 (A) (A) (A) (A) (A) (A) (A) (A) (A) (A) (A) (A)
                 (A) (A) (A) (A) (A) (A) (A) (A) (A) (A) (A) (A)
                 (A) (A) (A) (A) (A) (A) (A) (A) (A) (A) (A) (A)
                 (A) (A) (A) (A) (A) (A) (A) (A) (A) (A) (A) (A)
                 (A) (A) (A) (A) (A) (A) (A) (A) (A) (A) (A) (A)
                 (A) (A) (A) (A) (A) (A) (A) (A) (A) (A) (A) (A)
                 (A) (A) (A) (A) (A) (A) (A) (A) (A) (A) (A) (A)
                 (A) (A) (A) (A) (A) (A) (A) (A) (A) (A) (A) (A)
                 (A) (A) (A) (A) (A) (A) (A) (A) (A) (A) (A) (A)
                 (A) (A) (A) (A) (A) (A) (A) (A) (A) (A) (A) (A)
                 (A) (A) (A) (A) (A) (A) (A) (A) (A) (A) (A) (A)
                 (A) (A) (A) (A) (A) (A) (A) (A) (A) (A) (A) (A)
                 (A) (A) (A) (A) (A) (A) (A) (A) (A) (A) (A) (A)
                 (A) (A) (A) (A) (A) (A) (A) (A) (A) (A) (A) (A)
                 (A) (A) (A) (A) (A) (A) (A) (A) (A) (A) (A) (A)
                 (A) (A) (A) (A) (A) (A) (A) (A) (A) (A) (A) (A)
                 (A) (A) (A) (A) (A) (A) (A) (A) (A) (A) (A) (A)
                 (A) (A) (A) (A) (A) (A) (A) (A) (A) (A) (A) (A)
                 (A) (A) (A) (A) (A) (A) (A) (A) (A) (A) (A) (A)
                 (A) (A) (A) (A) (A) (A) (A) (A) (A) (A) (A) (A)
                 (A) (A) (A) (A) (A) (A) (A) (A) (A) (A) (A) (A)
                 (A) (A) (A) (A) (A) (A) (A) (A) (A) (A) (A) (A)
                 (A) (A) (A) (A) (A) (A) (A) (A) (A) (A) (A) (A)
                 (A) (A) (A) (A) (A) (A) (A) (A) (A) (A) (A) (A)
                 (A) (A) (A) (A) (A) (A) (A) (A) (A) (A) (A) (A)
                 (A) (A) (A) (A) (A) (A) (A) (A) (A) (A) (A) (A)
                 (A) (A) (A) (A) (A) (A) (A) (A) (A) (A) (A) (A)
                 (A) (A) (A)
    40 initial guesses have been made.
 Convergence on wavefunction:    0.001000000000000
 Iteration     1 Dimension    40 NMult     0 NNew     40
 CISAX will form     1 AO SS matrices at one time.
 New state      2 was old state      3
 New state      3 was old state      2
 New state      4 was old state      7
 New state      5 was old state      4
 New state      6 was old state      5
 New state      7 was old state     10
 New state      8 was old state      6
 New state     10 was old state      8
 Iteration     2 Dimension    60 NMult    40 NNew     20
 New state      4 was old state      5
 New state      5 was old state      4
 New state      8 was old state      9
 New state      9 was old state      8
 Iteration     3 Dimension    78 NMult    60 NNew     18
 Iteration     4 Dimension    94 NMult    78 NNew     16
 Iteration     5 Dimension   108 NMult    94 NNew     14
 Iteration     6 Dimension   110 NMult   108 NNew      2
 ***********************************************************************
 Excited states from <AA,BB:AA,BB> singles matrix:
 ***********************************************************************
 
 Ground to excited state transition densities written to RWF  633
 Ground to excited state transition electric dipole moments (Au):
       state          X           Y           Z        Dip. S.      Osc.
         1        -0.0000      0.0001     -0.0000      0.0000      0.0000
         2        -0.1342      0.0055     -0.1104      0.0302      0.0008
         3        -0.0291      0.0214     -0.0013      0.0013      0.0000
         4         0.1784     -0.0647     -0.6662      0.4798      0.0200
         5        -0.3262      0.0699      0.1025      0.1218      0.0053
         6         0.4493     -0.1148     -0.2169      0.2621      0.0118
         7        -0.0399      0.0365     -0.0183      0.0033      0.0002
         8        -0.1305     -0.0264     -0.2681      0.0896      0.0049
         9        -0.0000     -0.0001     -0.0000      0.0000      0.0000
        10         0.1105     -0.0379      0.0345      0.0148      0.0009
 Ground to excited state transition velocity dipole moments (Au):
       state          X           Y           Z        Dip. S.      Osc.
         1         0.0000     -0.0000      0.0000      0.0000      0.0000
         2         0.0055     -0.0001      0.0045      0.0001      0.0008
         3         0.0016     -0.0011      0.0000      0.0000      0.0001
         4        -0.0114      0.0042      0.0426      0.0020      0.0209
         5         0.0218     -0.0045     -0.0068      0.0005      0.0055
         6        -0.0306      0.0081      0.0146      0.0012      0.0120
         7         0.0029     -0.0034      0.0011      0.0000      0.0002
         8         0.0107      0.0025      0.0222      0.0006      0.0050
         9         0.0000      0.0000      0.0000      0.0000      0.0000
        10        -0.0097      0.0037     -0.0031      0.0001      0.0009
 Ground to excited state transition magnetic dipole moments (Au):
       state          X           Y           Z
         1        -0.0001     -0.0004      0.0001
         2        -0.4249     -1.1501      0.2456
         3         0.6374      2.7254     -0.1145
         4         0.0513      0.5614     -0.1100
         5         0.3973      0.7134      0.1747
         6         0.1706     -0.0090      0.1750
         7         0.1699      0.0076     -0.2939
         8         0.4841      2.1576     -0.0867
         9         0.0001      0.0000     -0.0002
        10         0.0324     -0.0573     -0.0260
 Ground to excited state transition velocity quadrupole moments (Au):
       state          XX          YY          ZZ          XY          XZ          YZ
         1        -0.0000     -0.0001      0.0000      0.0000     -0.0000      0.0000
         2        -0.0822      0.0052      0.0746     -0.0056     -0.0743      0.0035
         3        -0.1021      0.0041     -0.1276      0.0136      0.0315     -0.0051
         4         0.1997     -0.0122      0.1788     -0.0563     -0.7837      0.0590
         5        -0.4020      0.0172     -0.0622      0.0340      0.0600      0.0076
         6         0.5561     -0.0111      0.0742     -0.0573     -0.1365      0.0083
         7        -0.0181     -0.0262     -0.0514      0.0544      0.0743     -0.0119
         8        -0.3853     -0.0047      0.1050     -0.0056     -0.0705     -0.0393
         9        -0.0001      0.0004     -0.0000      0.0000     -0.0000      0.0001
        10         0.0818     -0.0096      0.0221     -0.0170      0.0075      0.0142
 <0|del|b> * <b|rxdel|0> + <0|del|b> * <b|delr+rdel|0>
 Rotatory Strengths (R) in cgs (10**-40 erg-esu-cm/Gauss)
       state          XX          YY          ZZ    R(velocity)    E-M Angle
         1         0.0000     -0.0000      0.0000      0.0000       90.00
         2         9.9513     -9.8697    -18.9011     -6.2732       97.21
         3       -22.1120      7.5426    -14.8861     -9.8185      111.21
         4        -8.3764    -20.0471     -4.7411    -11.0549       96.62
         5       -23.6887     42.5315     26.9258     15.2562       77.42
         6        14.4259    -10.8725    -32.1995     -9.5487      108.69
         7        -0.2045      0.3378      1.1960      0.4431       84.72
         8        14.8031     12.8036     46.3496     24.6521       81.00
         9        -0.0000     -0.0000      0.0000     -0.0000       90.00
        10        -0.4103     -1.6905     -1.4320     -1.1776      125.34
 1/2[<0|r|b>*<b|rxdel|0> + (<0|rxdel|b>*<b|r|0>)*]
 Rotatory Strengths (R) in cgs (10**-40 erg-esu-cm/Gauss)
       state          XX          YY          ZZ     R(length)
         1        -0.0000      0.0000      0.0000      0.0000
         2       -40.3318      4.4703     19.1699     -5.5639
         3        13.1203    -41.2374     -0.1062     -9.4078
         4        -6.4760     25.7049    -51.8424    -10.8711
         5        91.6435    -35.2470    -12.6660     14.5769
         6       -54.1953     -0.7306     26.8414     -9.3615
         7         4.7965     -0.1948     -3.7978      0.2680
         8        44.6618     40.2722    -16.4422     22.8306
         9         0.0000      0.0000     -0.0000     -0.0000
        10        -2.5331     -1.5353      0.6333     -1.1450
  1/2[<0|del|b>*<b|r|0> + (<0|r|b>*<b|del|0>)*] (Au)
       state          X           Y           Z        Dip. S.   Osc.(frdel)
         1        -0.0000     -0.0000     -0.0000      0.0000      0.0000
         2        -0.0007     -0.0000     -0.0005      0.0012      0.0008
         3        -0.0000     -0.0000     -0.0000      0.0001      0.0000
         4        -0.0020     -0.0003     -0.0284      0.0307      0.0204
         5        -0.0071     -0.0003     -0.0007      0.0081      0.0054
         6        -0.0137     -0.0009     -0.0032      0.0178      0.0119
         7        -0.0001     -0.0001     -0.0000      0.0003      0.0002
         8        -0.0014     -0.0001     -0.0060      0.0074      0.0049
         9        -0.0000     -0.0000     -0.0000      0.0000      0.0000
        10        -0.0011     -0.0001     -0.0001      0.0013      0.0009

 Excitation energies and oscillator strengths:
 
 Excited State   1:      Singlet-A      1.1395 eV 1088.03 nm  f=0.0000  <S**2>=0.000
     241 -> 242        0.70710
 This state for optimization and/or second-order correction.
 Total Energy, E(TD-HF/TD-DFT) =  -2934.98814495    
 Copying the excited state density for this state as the 1-particle RhoCI density.
 
 Excited State   2:      Singlet-A      1.1418 eV 1085.86 nm  f=0.0008  <S**2>=0.000
     238 -> 242       -0.10075
     239 -> 242        0.38185
     240 -> 242        0.57593
 
 Excited State   3:      Singlet-A      1.3207 eV  938.77 nm  f=0.0000  <S**2>=0.000
     239 -> 242        0.57275
     240 -> 242       -0.40339
 
 Excited State   4:      Singlet-A      1.7012 eV  728.82 nm  f=0.0200  <S**2>=0.000
     237 -> 242       -0.14962
     238 -> 242        0.67381
     239 -> 242        0.10559
 
 Excited State   5:      Singlet-A      1.7780 eV  697.34 nm  f=0.0053  <S**2>=0.000
     236 -> 242        0.49431
     237 -> 242       -0.46188
     239 -> 243       -0.10339
 
 Excited State   6:      Singlet-A      1.8352 eV  675.58 nm  f=0.0118  <S**2>=0.000
     236 -> 242        0.45374
     237 -> 242        0.49301
     238 -> 242        0.13447
     240 -> 243       -0.11906
 
 Excited State   7:      Singlet-A      2.0825 eV  595.35 nm  f=0.0002  <S**2>=0.000
     233 -> 242        0.66507
 
 Excited State   8:      Singlet-A      2.2327 eV  555.32 nm  f=0.0049  <S**2>=0.000
     234 -> 242        0.67896
 
 Excited State   9:      Singlet-A      2.3251 eV  533.25 nm  f=0.0000  <S**2>=0.000
     241 -> 243        0.70710
 
 Excited State  10:      Singlet-A      2.4231 eV  511.68 nm  f=0.0009  <S**2>=0.000
     235 -> 242        0.69261
 SavETr:  write IOETrn=   770 NScale= 10 NData=  16 NLR=1 NState=   10 LETran=     190.
 Hyperfine terms turned off by default for NAtoms > 100.

 **********************************************************************

            Population analysis using the SCF density.

 **********************************************************************

 Orbital symmetries:
       Occupied  (A) (A) (A) (A) (A) (A) (A) (A) (A) (A) (A) (A)
                 (A) (A) (A) (A) (A) (A) (A) (A) (A) (A) (A) (A)
                 (A) (A) (A) (A) (A) (A) (A) (A) (A) (A) (A) (A)
                 (A) (A) (A) (A) (A) (A) (A) (A) (A) (A) (A) (A)
                 (A) (A) (A) (A) (A) (A) (A) (A) (A) (A) (A) (A)
                 (A) (A) (A) (A) (A) (A) (A) (A) (A) (A) (A) (A)
                 (A) (A) (A) (A) (A) (A) (A) (A) (A) (A) (A) (A)
                 (A) (A) (A) (A) (A) (A) (A) (A) (A) (A) (A) (A)
                 (A) (A) (A) (A) (A) (A) (A) (A) (A) (A) (A) (A)
                 (A) (A) (A) (A) (A) (A) (A) (A) (A) (A) (A) (A)
                 (A) (A) (A) (A) (A) (A) (A) (A) (A) (A) (A) (A)
                 (A) (A) (A) (A) (A) (A) (A) (A) (A) (A) (A) (A)
                 (A) (A) (A) (A) (A) (A) (A) (A) (A) (A) (A) (A)
                 (A) (A) (A) (A) (A) (A) (A) (A) (A) (A) (A) (A)
                 (A) (A) (A) (A) (A) (A) (A) (A) (A) (A) (A) (A)
                 (A) (A) (A) (A) (A) (A) (A) (A) (A) (A) (A) (A)
                 (A) (A) (A) (A) (A) (A) (A) (A) (A) (A) (A) (A)
                 (A) (A) (A) (A) (A) (A) (A) (A) (A) (A) (A) (A)
                 (A) (A) (A) (A) (A) (A) (A) (A) (A) (A) (A) (A)
                 (A) (A) (A) (A) (A) (A) (A) (A) (A) (A) (A) (A)
                 (A)
       Virtual   (A) (A) (A) (A) (A) (A) (A) (A) (A) (A) (A) (A)
                 (A) (A) (A) (A) (A) (A) (A) (A) (A) (A) (A) (A)
                 (A) (A) (A) (A) (A) (A) (A) (A) (A) (A) (A) (A)
                 (A) (A) (A) (A) (A) (A) (A) (A) (A) (A) (A) (A)
                 (A) (A) (A) (A) (A) (A) (A) (A) (A) (A) (A) (A)
                 (A) (A) (A) (A) (A) (A) (A) (A) (A) (A) (A) (A)
                 (A) (A) (A) (A) (A) (A) (A) (A) (A) (A) (A) (A)
                 (A) (A) (A) (A) (A) (A) (A) (A) (A) (A) (A) (A)
                 (A) (A) (A) (A) (A) (A) (A) (A) (A) (A) (A) (A)
                 (A) (A) (A) (A) (A) (A) (A) (A) (A) (A) (A) (A)
                 (A) (A) (A) (A) (A) (A) (A) (A) (A) (A) (A) (A)
                 (A) (A) (A) (A) (A) (A) (A) (A) (A) (A) (A) (A)
                 (A) (A) (A) (A) (A) (A) (A) (A) (A) (A) (A) (A)
                 (A) (A) (A) (A) (A) (A) (A) (A) (A) (A) (A) (A)
                 (A) (A) (A) (A) (A) (A) (A) (A) (A) (A) (A) (A)
                 (A) (A) (A) (A) (A) (A) (A) (A) (A) (A) (A) (A)
                 (A) (A) (A) (A) (A) (A) (A) (A) (A) (A) (A) (A)
                 (A) (A) (A) (A) (A) (A) (A) (A) (A) (A) (A) (A)
                 (A) (A) (A) (A) (A) (A) (A) (A) (A) (A) (A) (A)
                 (A) (A) (A) (A) (A) (A) (A) (A) (A) (A) (A) (A)
                 (A) (A) (A) (A) (A) (A) (A) (A) (A) (A) (A) (A)
                 (A) (A) (A) (A) (A) (A) (A) (A) (A) (A) (A) (A)
                 (A) (A) (A) (A) (A) (A) (A) (A) (A) (A) (A) (A)
                 (A) (A) (A) (A) (A) (A) (A) (A) (A) (A) (A) (A)
                 (A) (A) (A) (A) (A) (A) (A) (A) (A) (A) (A) (A)
                 (A) (A) (A) (A) (A) (A) (A) (A) (A) (A) (A) (A)
                 (A) (A) (A) (A) (A) (A) (A) (A) (A) (A) (A) (A)
                 (A) (A) (A) (A) (A) (A) (A) (A) (A) (A) (A) (A)
                 (A) (A) (A) (A) (A) (A) (A) (A) (A) (A) (A) (A)
                 (A) (A) (A) (A) (A) (A) (A) (A) (A) (A) (A) (A)
                 (A) (A) (A) (A) (A) (A) (A) (A) (A) (A) (A) (A)
                 (A) (A) (A) (A) (A) (A) (A) (A) (A) (A) (A) (A)
                 (A) (A) (A) (A) (A) (A) (A) (A) (A) (A) (A) (A)
                 (A) (A) (A) (A) (A) (A) (A) (A) (A) (A) (A) (A)
                 (A) (A) (A) (A) (A) (A) (A) (A) (A) (A) (A) (A)
                 (A) (A) (A) (A) (A) (A) (A) (A) (A) (A) (A) (A)
                 (A) (A) (A) (A) (A) (A) (A) (A) (A) (A) (A) (A)
                 (A) (A) (A) (A) (A) (A) (A) (A) (A) (A) (A) (A)
                 (A) (A) (A) (A) (A) (A) (A) (A) (A) (A) (A) (A)
                 (A) (A) (A) (A) (A) (A) (A) (A) (A) (A) (A) (A)
                 (A) (A) (A) (A) (A) (A) (A) (A) (A) (A) (A) (A)
                 (A) (A) (A) (A) (A) (A) (A) (A) (A) (A) (A) (A)
                 (A) (A) (A) (A) (A) (A) (A) (A) (A) (A) (A) (A)
                 (A) (A) (A) (A) (A) (A) (A) (A) (A) (A) (A) (A)
                 (A) (A) (A) (A) (A) (A) (A) (A) (A) (A) (A) (A)
                 (A) (A) (A) (A) (A) (A) (A) (A) (A) (A) (A) (A)
                 (A) (A) (A) (A) (A) (A) (A) (A) (A) (A) (A) (A)
                 (A) (A) (A) (A) (A) (A) (A) (A) (A) (A) (A) (A)
                 (A) (A) (A) (A) (A) (A) (A) (A) (A) (A) (A) (A)
                 (A) (A) (A) (A) (A) (A) (A) (A) (A) (A) (A) (A)
                 (A) (A) (A) (A) (A) (A) (A) (A) (A) (A) (A) (A)
                 (A) (A) (A) (A) (A) (A) (A) (A) (A) (A) (A) (A)
                 (A) (A) (A) (A) (A) (A) (A) (A) (A) (A) (A) (A)
                 (A) (A) (A) (A) (A) (A) (A) (A) (A) (A) (A) (A)
                 (A) (A) (A) (A) (A) (A) (A) (A) (A) (A) (A) (A)
                 (A) (A) (A) (A) (A) (A) (A) (A) (A) (A) (A) (A)
                 (A) (A) (A) (A) (A) (A) (A) (A) (A) (A) (A) (A)
                 (A) (A) (A) (A) (A) (A) (A) (A) (A) (A) (A) (A)
                 (A) (A) (A) (A) (A) (A) (A) (A) (A) (A) (A) (A)
                 (A) (A) (A) (A) (A) (A) (A) (A) (A) (A) (A) (A)
                 (A) (A) (A) (A) (A) (A) (A) (A) (A) (A) (A) (A)
                 (A) (A) (A) (A) (A) (A) (A) (A) (A) (A) (A) (A)
                 (A) (A) (A) (A) (A) (A) (A) (A) (A) (A) (A) (A)
                 (A) (A) (A) (A) (A) (A) (A) (A) (A) (A) (A) (A)
                 (A) (A) (A) (A) (A) (A) (A) (A) (A) (A) (A) (A)
                 (A) (A) (A) (A) (A) (A) (A) (A) (A) (A) (A) (A)
                 (A) (A) (A) (A) (A) (A) (A) (A) (A) (A) (A) (A)
                 (A) (A) (A) (A) (A) (A) (A) (A) (A) (A) (A) (A)
                 (A) (A) (A) (A) (A) (A) (A) (A) (A) (A) (A) (A)
                 (A) (A) (A) (A) (A) (A) (A) (A) (A) (A) (A) (A)
                 (A) (A) (A) (A) (A) (A) (A) (A) (A) (A) (A) (A)
                 (A) (A) (A) (A) (A) (A) (A) (A) (A) (A) (A) (A)
                 (A) (A) (A) (A) (A) (A) (A) (A) (A) (A) (A) (A)
                 (A) (A) (A) (A) (A) (A) (A) (A) (A) (A) (A) (A)
                 (A) (A) (A) (A) (A) (A) (A) (A) (A) (A) (A) (A)
                 (A) (A) (A) (A) (A) (A) (A) (A) (A) (A) (A) (A)
                 (A) (A) (A) (A) (A) (A) (A) (A) (A) (A) (A) (A)
                 (A) (A) (A) (A) (A) (A) (A) (A) (A) (A) (A) (A)
                 (A) (A) (A) (A) (A) (A) (A) (A) (A) (A) (A) (A)
                 (A) (A) (A) (A) (A) (A) (A) (A) (A) (A) (A) (A)
                 (A) (A) (A) (A) (A) (A) (A) (A) (A) (A) (A) (A)
                 (A) (A) (A) (A) (A) (A) (A) (A) (A) (A) (A) (A)
                 (A) (A) (A) (A) (A) (A) (A) (A) (A) (A) (A) (A)
                 (A) (A) (A) (A) (A) (A) (A) (A) (A) (A) (A) (A)
                 (A) (A) (A) (A) (A) (A) (A) (A) (A) (A) (A) (A)
                 (A) (A) (A) (A) (A) (A) (A) (A) (A) (A) (A) (A)
                 (A) (A) (A) (A) (A) (A) (A) (A) (A) (A) (A) (A)
                 (A) (A) (A) (A) (A) (A) (A) (A) (A) (A) (A) (A)
                 (A) (A) (A) (A) (A) (A) (A) (A) (A) (A) (A) (A)
                 (A) (A) (A) (A) (A) (A) (A) (A) (A) (A) (A) (A)
                 (A) (A) (A) (A) (A) (A) (A) (A) (A) (A) (A) (A)
                 (A) (A) (A) (A) (A) (A) (A) (A) (A) (A) (A) (A)
                 (A) (A) (A) (A) (A) (A) (A) (A) (A) (A) (A) (A)
                 (A) (A) (A) (A) (A) (A) (A) (A) (A) (A) (A) (A)
                 (A) (A) (A) (A) (A) (A) (A) (A) (A) (A) (A) (A)
                 (A) (A) (A) (A) (A) (A) (A) (A) (A) (A) (A) (A)
                 (A) (A) (A) (A) (A) (A) (A) (A) (A) (A) (A) (A)
                 (A) (A) (A) (A) (A) (A) (A) (A) (A) (A) (A) (A)
                 (A) (A) (A) (A) (A) (A) (A) (A) (A) (A) (A) (A)
                 (A) (A) (A) (A) (A) (A) (A) (A) (A) (A) (A) (A)
                 (A) (A) (A) (A) (A) (A) (A) (A) (A) (A) (A) (A)
                 (A) (A) (A) (A) (A) (A) (A) (A) (A) (A) (A) (A)
                 (A) (A) (A) (A) (A) (A) (A) (A) (A) (A) (A) (A)
                 (A) (A) (A) (A) (A) (A) (A) (A) (A) (A) (A) (A)
                 (A) (A) (A) (A) (A) (A) (A) (A) (A) (A) (A) (A)
                 (A) (A) (A) (A) (A) (A) (A) (A) (A) (A) (A) (A)
                 (A) (A) (A) (A) (A) (A) (A) (A) (A) (A) (A) (A)
                 (A) (A) (A) (A) (A) (A) (A) (A) (A) (A) (A) (A)
                 (A) (A) (A) (A) (A) (A) (A) (A) (A) (A) (A) (A)
                 (A) (A) (A) (A) (A) (A) (A) (A) (A) (A) (A) (A)
                 (A) (A) (A) (A) (A) (A) (A) (A) (A) (A) (A) (A)
                 (A) (A) (A) (A) (A) (A) (A) (A) (A) (A) (A) (A)
                 (A) (A) (A) (A) (A) (A) (A) (A) (A) (A) (A) (A)
                 (A) (A) (A) (A) (A) (A) (A) (A) (A) (A) (A) (A)
                 (A) (A) (A) (A) (A) (A) (A) (A) (A) (A) (A) (A)
                 (A) (A) (A) (A) (A) (A) (A) (A) (A) (A) (A) (A)
                 (A) (A) (A) (A) (A) (A) (A) (A) (A) (A) (A) (A)
                 (A) (A) (A) (A) (A) (A) (A) (A) (A) (A) (A) (A)
                 (A) (A) (A) (A) (A) (A) (A) (A) (A) (A) (A) (A)
                 (A) (A) (A) (A) (A) (A) (A) (A) (A) (A) (A) (A)
                 (A) (A) (A) (A) (A) (A) (A) (A) (A) (A) (A) (A)
                 (A) (A) (A) (A) (A) (A) (A) (A) (A) (A) (A) (A)
                 (A) (A) (A) (A) (A) (A) (A) (A) (A) (A) (A) (A)
                 (A) (A) (A) (A) (A) (A) (A) (A) (A) (A) (A) (A)
                 (A) (A) (A) (A) (A) (A) (A) (A) (A) (A) (A) (A)
                 (A) (A) (A) (A) (A) (A) (A) (A) (A) (A) (A) (A)
                 (A) (A) (A) (A) (A) (A) (A) (A) (A) (A) (A) (A)
                 (A) (A) (A) (A) (A) (A) (A) (A) (A) (A) (A) (A)
                 (A) (A) (A) (A) (A) (A) (A) (A) (A) (A) (A) (A)
                 (A) (A) (A) (A) (A) (A) (A) (A) (A) (A) (A) (A)
                 (A) (A) (A) (A) (A) (A) (A) (A) (A) (A) (A) (A)
                 (A) (A) (A) (A) (A) (A) (A) (A) (A) (A) (A) (A)
                 (A) (A) (A) (A) (A) (A) (A) (A) (A) (A) (A) (A)
                 (A) (A) (A) (A) (A) (A) (A) (A) (A) (A) (A) (A)
                 (A) (A) (A) (A) (A) (A) (A) (A) (A) (A) (A) (A)
                 (A) (A) (A) (A) (A) (A) (A) (A) (A) (A) (A) (A)
                 (A) (A) (A) (A) (A) (A) (A) (A) (A) (A) (A) (A)
                 (A) (A) (A) (A) (A) (A) (A) (A) (A) (A) (A) (A)
                 (A) (A) (A) (A) (A) (A) (A) (A) (A) (A) (A) (A)
                 (A) (A) (A) (A) (A) (A) (A) (A) (A) (A) (A) (A)
                 (A) (A) (A) (A) (A) (A) (A) (A) (A) (A) (A) (A)
                 (A) (A) (A) (A) (A) (A) (A) (A) (A) (A) (A) (A)
                 (A) (A) (A) (A) (A) (A) (A) (A) (A) (A) (A) (A)
                 (A) (A) (A) (A) (A) (A) (A) (A) (A) (A) (A) (A)
                 (A) (A) (A) (A) (A) (A) (A) (A) (A) (A) (A) (A)
                 (A) (A) (A) (A) (A) (A) (A) (A) (A) (A) (A) (A)
                 (A) (A) (A) (A) (A) (A) (A) (A) (A) (A) (A) (A)
                 (A) (A) (A) (A) (A) (A) (A) (A) (A) (A) (A) (A)
                 (A) (A) (A) (A) (A) (A) (A) (A) (A) (A) (A) (A)
                 (A) (A) (A) (A) (A) (A) (A) (A) (A) (A) (A) (A)
                 (A) (A) (A) (A) (A) (A) (A) (A) (A) (A) (A) (A)
                 (A) (A) (A) (A) (A) (A) (A) (A) (A) (A) (A) (A)
                 (A) (A) (A) (A) (A) (A) (A) (A) (A) (A) (A) (A)
                 (A) (A) (A) (A) (A) (A) (A) (A) (A) (A) (A) (A)
                 (A) (A) (A) (A) (A) (A) (A) (A) (A) (A) (A) (A)
                 (A) (A) (A) (A) (A) (A) (A) (A) (A) (A) (A) (A)
                 (A) (A) (A) (A) (A) (A) (A) (A) (A) (A) (A) (A)
                 (A) (A) (A) (A) (A) (A) (A) (A) (A) (A) (A) (A)
                 (A) (A) (A) (A) (A) (A) (A) (A) (A) (A) (A) (A)
                 (A) (A) (A) (A) (A) (A) (A) (A) (A) (A) (A) (A)
                 (A) (A) (A) (A) (A) (A) (A) (A) (A) (A) (A) (A)
                 (A) (A) (A)
 The electronic state is 1-A.
 Alpha  occ. eigenvalues --  -46.79029 -19.17821 -19.15457 -19.12557 -19.12394
 Alpha  occ. eigenvalues --  -19.09339 -14.31524 -14.29865 -14.29388 -14.28838
 Alpha  occ. eigenvalues --  -10.32011 -10.29492 -10.27663 -10.23483 -10.22879
[...]
 Alpha virt. eigenvalues --    3.57416   3.57627   3.57692   3.58153   3.58398
 Alpha virt. eigenvalues --    3.58607   3.58951   3.59080   3.59186   3.59394
 Alpha virt. eigenvalues --    3.59543   3.59899   3.60167   3.60467   3.60765
 Alpha virt. eigenvalues --    3.61078   3.61376   3.61544   3.61828   3.62022
 Alpha virt. eigenvalues --    3.62336   3.62369   3.62595   3.62895   3.63234
 Alpha virt. eigenvalues --    3.63502   3.63592   3.63768   3.64009   3.64231
 Alpha virt. eigenvalues --    3.64522   3.64691   3.64785   3.65070   3.65197
 Alpha virt. eigenvalues --    3.65524   3.65832   3.66035   3.66224   3.66355
 Alpha virt. eigenvalues --    3.66454   3.66734   3.67028   3.67231   3.67435
 Alpha virt. eigenvalues --    3.67562   3.67806   3.67926   3.68747   3.68929
 Alpha virt. eigenvalues --    3.69026   3.69493   3.69743   3.69971   3.70158
 Alpha virt. eigenvalues --    3.70393   3.70652   3.70956   3.71189   3.71659
 Alpha virt. eigenvalues --    3.72215   3.72282   3.72562   3.72715   3.72948
 Alpha virt. eigenvalues --    3.73326   3.73535   3.73758   3.74008   3.74255
 Alpha virt. eigenvalues --    3.74326   3.74635   3.74976   3.75307   3.75897
 Alpha virt. eigenvalues --    3.75958   3.76753   3.76961   3.77236   3.77274
 Alpha virt. eigenvalues --    3.77510   3.77803   3.78002   3.78404   3.78468
 Alpha virt. eigenvalues --    3.79067   3.79369   3.79557   3.80103   3.80537
 Alpha virt. eigenvalues --    3.80659   3.80837   3.80904   3.81725   3.81755
 Alpha virt. eigenvalues --    3.81969   3.82110   3.82592   3.82685   3.83303
 Alpha virt. eigenvalues --    3.83402   3.83835   3.84221   3.84656   3.84788
 Alpha virt. eigenvalues --    3.85523   3.85816   3.86047   3.86301   3.86816
 Alpha virt. eigenvalues --    3.87193   3.87569   3.87573   3.88016   3.88098
 Alpha virt. eigenvalues --    3.88728   3.89033   3.89901   3.90322   3.90496
 Alpha virt. eigenvalues --    3.90816   3.91614   3.92042   3.92080   3.92448
 Alpha virt. eigenvalues --    3.92959   3.93959   3.94422   3.94767   3.94911
 Alpha virt. eigenvalues --    3.95151   3.95954   3.96363   3.96425   3.97011
 Alpha virt. eigenvalues --    3.98176   3.98390   3.98594   3.98874   3.99558
 Alpha virt. eigenvalues --    4.00126   4.00188   4.00531   4.01616   4.01973
 Alpha virt. eigenvalues --    4.02882   4.03139   4.03757   4.04493   4.04891
 Alpha virt. eigenvalues --    4.05369   4.05629   4.06330   4.06637   4.06931
 Alpha virt. eigenvalues --    4.07212   4.07622   4.08348   4.08588   4.08752
 Alpha virt. eigenvalues --    4.09436   4.10682   4.12184   4.12874   4.14711
 Alpha virt. eigenvalues --    4.14846   4.15211   4.15770   4.16425   4.16620
 Alpha virt. eigenvalues --    4.16727   4.17314   4.17485   4.17966   4.18479
 Alpha virt. eigenvalues --    4.19250   4.19805   4.20022   4.20387   4.21083
 Alpha virt. eigenvalues --    4.21101   4.21487   4.21638   4.21895   4.22076
 Alpha virt. eigenvalues --    4.22231   4.22494   4.22742   4.22887   4.23577
 Alpha virt. eigenvalues --    4.23688   4.24089   4.24674   4.24981   4.25063
 Alpha virt. eigenvalues --    4.25577   4.25719   4.25976   4.26281   4.26555
 Alpha virt. eigenvalues --    4.27072   4.27211   4.27412   4.27549   4.27988
 Alpha virt. eigenvalues --    4.28035   4.29127   4.29264   4.30103   4.30310
 Alpha virt. eigenvalues --    4.30477   4.30887   4.31628   4.31955   4.32332
 Alpha virt. eigenvalues --    4.32831   4.33238   4.34463   4.35704   4.36659
 Alpha virt. eigenvalues --    4.37440   4.38074   4.39128   4.39845   4.40427
 Alpha virt. eigenvalues --    4.41265   4.42213   4.44673   4.44831   4.45321
 Alpha virt. eigenvalues --    4.46763   4.47226   4.48550   4.49092   4.49258
 Alpha virt. eigenvalues --    4.49499   4.50988   4.51921   4.52834   4.53863
 Alpha virt. eigenvalues --    4.55185   4.55419   4.55890   4.56482   4.59103
 Alpha virt. eigenvalues --    4.60874   4.61037   4.62642   4.64051   4.64507
 Alpha virt. eigenvalues --    4.67243   4.67314   4.67459   4.68471   4.72133
 Alpha virt. eigenvalues --    4.76136   4.77489   4.78939   4.82336   4.83190
 Alpha virt. eigenvalues --    4.87429   4.87706   4.96104   4.96995   5.00887
 Alpha virt. eigenvalues --    5.05242   5.06108   5.07112   5.07771   5.09038
 Alpha virt. eigenvalues --    5.09338   5.10084   5.11471   5.13169   5.13684
 Alpha virt. eigenvalues --    5.14506   5.15126   5.15771   5.16833   5.19564
 Alpha virt. eigenvalues --    5.19882   5.20416   5.21432   5.21694   5.24166
 Alpha virt. eigenvalues --    5.34930   5.36360   5.36699   5.39984   5.43028
 Alpha virt. eigenvalues --    5.44349   5.46685   5.47477   5.50030   5.52619
 Alpha virt. eigenvalues --    5.53332   5.54306   5.55673   5.60913   5.62419
 Alpha virt. eigenvalues --    5.62488   5.65849   5.77626   5.77844   5.77845
 Alpha virt. eigenvalues --    5.77866   5.81031   6.11063   6.12283   6.14681
 Alpha virt. eigenvalues --    6.81097   6.83342   6.83984   6.87730   6.89567
 Alpha virt. eigenvalues --    6.92270   6.96855   6.99753   7.02399   7.03832
 Alpha virt. eigenvalues --    7.04196   7.09395   7.09805   7.12588   7.14071
 Alpha virt. eigenvalues --    7.24061   7.26931   7.27182   7.29311   7.30275
 Alpha virt. eigenvalues --    7.31264   7.49851   7.50774   7.51216   7.56445
 Alpha virt. eigenvalues --   23.72472  23.77916  23.78147  23.83107  23.85034
 Alpha virt. eigenvalues --   23.87150  23.88649  23.89146  23.90863  23.91547
 Alpha virt. eigenvalues --   23.92458  23.92879  23.93052  23.93782  23.95010
 Alpha virt. eigenvalues --   23.96346  23.96621  23.96745  23.97865  23.98402
 Alpha virt. eigenvalues --   23.98942  23.99587  24.00634  24.01176  24.01245
 Alpha virt. eigenvalues --   24.01715  24.02127  24.03045  24.03469  24.03992
 Alpha virt. eigenvalues --   24.04784  24.05814  24.05898  24.07887  24.08092
 Alpha virt. eigenvalues --   24.09578  24.09704  24.10519  24.10959  24.12272
 Alpha virt. eigenvalues --   24.13685  24.14053  24.15615  24.16283  24.17969
 Alpha virt. eigenvalues --   24.20851  24.23586  24.25378  24.27499  24.30147
 Alpha virt. eigenvalues --   24.31591  24.35174  24.37702  24.39838  24.43451
 Alpha virt. eigenvalues --   35.77805  35.78471  35.79480  35.83764  50.03253
 Alpha virt. eigenvalues --   50.03692  50.05765  50.07737  50.11168 102.72984
          Condensed to atoms (all electrons):
 Mulliken charges:
               1
     1  C   -0.084673
     2  C    0.169668
     3  N   -0.238413
     4  C    0.130583
     5  C    0.073602
     6  C   -0.598534
     7  H    0.142806
     8  H    0.141502
     9  H    0.134423
    10  H    0.076727
    11  C   -0.217996
    12  C    0.262074
    13  N   -0.215567
    14  C   -0.030582
    15  C    0.655694
    16  C    0.179780
    17  C   -0.539531
    18  H    0.117337
    19  H    0.156916
    20  H    0.125409
    21  C   -0.315497
    22  C   -0.499175
    23  H    0.083095
    24  H    0.098673
    25  H    0.080612
    26  C   -0.300212
    27  C    0.289951
    28  N   -0.234800
    29  C    0.156683
    30  C   -0.248528
    31  C    0.137980
    32  N   -0.253712
    33  C   -0.272549
    34  C    0.255177
    35  C    0.109867
    36  C    0.144719
    37  O   -0.414963
    38  C    0.180084
    39  C    0.287086
    40  C   -0.480100
    41  H    0.130352
    42  H    0.163552
    43  H    0.156001
    44  C    0.028698
    45  O   -0.258236
    46  C   -0.091615
    47  H    0.143048
    48  H    0.155971
    49  H    0.154673
    50  O   -0.303592
    51  H    0.162348
    52  H    0.101008
    53  C    0.297099
    54  C   -0.023656
    55  C   -0.430344
    56  H    0.123381
    57  H    0.135189
    58  H    0.152191
    59  C   -0.300211
    60  C   -0.506208
    61  H    0.123842
    62  H    0.122729
    63  H    0.117707
    64  H    0.116987
    65  H    0.080052
    66  H    0.095926
    67  H    0.099467
    68  C   -0.062499
    69  C   -0.237137
    70  C    0.126377
    71  O   -0.272819
    72  C   -0.508182
    73  C   -0.112429
    74  C    1.143759
    75  C   -0.742783
    76  C   -0.084770
    77  C   -0.338029
    78  C    0.546100
    79  C   -0.760497
    80  C    0.020745
    81  C   -0.502307
    82  C    0.966532
    83  C   -0.642665
    84  C    0.196411
    85  C   -0.672044
    86  C    0.440563
    87  C   -0.563323
    88  H    0.113740
    89  H    0.116435
    90  H    0.114806
    91  C   -0.494592
    92  H    0.114045
    93  H    0.115272
    94  H    0.108895
    95  H    0.059482
    96  H    0.105016
    97  H    0.104075
    98  H    0.101627
    99  H    0.052547
   100  H    0.104866
   101  H    0.105554
   102  C   -0.546247
   103  H    0.111116
   104  H    0.118769
   105  H    0.124067
   106  H    0.058849
   107  H    0.101153
   108  H    0.111009
   109  H    0.048970
   110  H    0.095877
   111  H    0.106834
   112  H    0.113238
   113  C   -0.551393
   114  H    0.098729
   115  H    0.126988
   116  H    0.114515
   117  H    0.080270
   118  H    0.116976
   119  H    0.101484
   120  H    0.100677
   121  H    0.065407
   122  H    0.115460
   123  H    0.120706
   124  C   -0.791673
   125  H    0.144810
   126  H    0.139397
   127  H    0.147357
   128  H    0.078554
   129  H    0.136314
   130  H    0.146541
   131  O   -0.409157
   132  H    0.142208
   133  H    0.191937
   134  H    0.149546
   135  H    0.124898
   136  H    0.111063
   137  Mg   0.000001
 Sum of Mulliken charges =  -0.00000
 Mulliken charges with hydrogens summed into heavy atoms:
               1
     1  C    0.026390
     2  C    0.169668
     3  N   -0.238413
     4  C    0.130583
     5  C    0.150329
     6  C   -0.179803
    11  C   -0.118529
    12  C    0.262074
    13  N   -0.215567
    14  C   -0.030582
    15  C    0.655694
    16  C    0.179780
    17  C   -0.139869
    21  C   -0.234884
    22  C   -0.317407
    26  C   -0.204286
    27  C    0.289951
    28  N   -0.234800
    29  C    0.156683
    30  C   -0.147520
    31  C    0.137980
    32  N   -0.253712
    33  C   -0.272549
    34  C    0.255177
    35  C    0.272215
    36  C    0.144719
    37  O   -0.414963
    38  C    0.180084
    39  C    0.287086
    40  C   -0.030196
    44  C    0.028698
    45  O   -0.258236
    46  C    0.362077
    50  O   -0.303592
    53  C    0.297099
    54  C   -0.023656
    55  C   -0.019583
    59  C   -0.103173
    60  C   -0.141929
    68  C    0.211945
    69  C    0.097008
    70  C    0.126377
    71  O   -0.272819
    72  C   -0.225326
    73  C   -0.033875
    74  C    1.143759
    75  C   -0.506617
    76  C    0.081313
    77  C   -0.119569
    78  C    0.626369
    79  C   -0.540424
    80  C    0.165592
    81  C   -0.290145
    82  C    1.025381
    83  C   -0.432245
    84  C    0.350585
    85  C   -0.462953
    86  C    0.500046
    87  C   -0.218342
    91  C   -0.156380
   102  C   -0.192296
   113  C   -0.211160
   124  C   -0.360108
   131  O   -0.409157
   137  Mg   0.000001
 Electronic spatial extent (au):  <R**2>=         119368.2480
 Charge=              0.0000 electrons
 Dipole moment (field-independent basis, Debye):
    X=             -4.6991    Y=              5.0350    Z=              0.6330  Tot=              6.9161
 Quadrupole moment (field-independent basis, Debye-Ang):
   XX=           -335.4085   YY=           -429.6709   ZZ=           -388.5984
   XY=             -4.0517   XZ=              1.8854   YZ=             21.4001
 Traceless Quadrupole moment (field-independent basis, Debye-Ang):
   XX=             49.1508   YY=            -45.1117   ZZ=             -4.0391
   XY=             -4.0517   XZ=              1.8854   YZ=             21.4001
 Octapole moment (field-independent basis, Debye-Ang**2):
  XXX=           -773.4898  YYY=            -80.7179  ZZZ=             81.9793  XYY=            -42.1654
  XXY=             12.0621  XXZ=           -108.5675  XZZ=           -259.7883  YZZ=             19.6243
  YYZ=           -156.7466  XYZ=              9.2957
 Hexadecapole moment (field-independent basis, Debye-Ang**3):
 XXXX=        -125472.1592 YYYY=         -22559.9771 ZZZZ=         -15247.6039 XXXY=          -1483.2869
 XXXZ=           -235.3877 YYYX=            681.7191 YYYZ=            876.9371 ZZZX=           -235.2024
 ZZZY=            343.7476 XXYY=         -26689.7747 XXZZ=         -23249.3398 YYZZ=          -6576.2190
 XXYZ=             57.9329 YYXZ=             18.3132 ZZXY=            121.6700
 N-N= 9.155580826245D+03 E-N=-2.514981350076D+04  KE= 2.922052784782D+03
 1\1\GINC-COMPCHEM0\SP\RB3LYP TD-FC\6-311+G(2d,p)\C55H72Mg1N4O5\APACHE\
 12-Jan-2019\0\\#N TD(NStates=10) B3LYP/6-311+G(2d,p) Geom=Connectivity
 \\chlorophyll\\0,1\C\C,1,1.51440916\N,2,1.442069846,1,108.6187217\C,3,
 1.307603269,2,110.8026325,1,10.0738519,0\C,1,1.560106195,2,103.0210841
 ,3,-13.57197723,0\C,5,1.514603193,1,112.2832221,2,-108.695836,0\H,6,1.
 098298956,5,110.8896193,1,-63.97296214,0\H,6,1.098030226,5,112.1239535
 ,1,56.21689106,0\H,6,1.098101726,5,110.9120448,1,176.3456701,0\H,5,1.1
 22268217,1,110.0599289,2,129.7395515,0\C,4,1.449640152,3,125.6313633,2
 ,-179.7824822,0\C,11,1.34525004,4,127.5892235,3,-18.06873096,0\N,12,1.
 445317623,11,127.5224498,4,-0.21665375,0\C,13,1.320800204,12,108.61071
 19,11,175.5769705,0\C,14,1.492536207,13,110.1978007,12,1.22544667,0\C,
 12,1.484449263,13,106.7091588,14,-2.38412808,0\C,16,1.468756849,12,122
 .4927921,13,-176.9589473,0\H,17,1.101737501,16,110.6561862,12,-18.7593
 1816,0\H,17,1.099417508,16,110.5141454,12,100.4713095,0\H,17,1.1021989
 18,16,111.5388909,12,-140.3440861,0\C,15,1.443051125,14,121.8785677,13
 ,-179.0458932,0\C,21,1.332237331,15,124.8751416,14,172.4329104,0\H,22,
 1.09116917,21,122.9151408,15,0.10589511,0\H,22,1.085319588,21,122.4461
 851,15,-179.1878949,0\H,21,1.103779969,15,113.96978,14,-6.39330851,0\C
 ,14,1.448938193,13,127.0233067,12,-178.1712366,0\C,26,1.345691314,14,1
 26.7971691,13,0.34558219,0\N,27,1.443873324,26,124.7588703,14,-1.68774
 852,0\C,28,1.32061154,27,108.9464143,26,177.0964787,0\C,29,1.448488185
 ,28,125.5993978,27,178.883564,0\C,30,1.346418184,29,124.7224686,28,14.
 83628334,0\N,31,1.458520057,30,123.4906771,29,2.97474136,0\C,32,1.3099
 44722,31,106.9919681,30,-171.8288961,0\C,33,1.455157779,32,137.4548183
 ,31,174.0431575,0\C,34,1.517115602,33,106.6992408,32,178.1536336,0\C,3
 5,1.561981999,34,106.5972978,33,6.36164147,0\O,36,1.209504154,35,124.5
 875925,34,173.7758597,0\C,33,1.478777322,32,111.4329066,31,-2.32534903
 ,0\C,38,1.359822732,33,108.1298037,32,0.03214026,0\C,39,1.466960661,38
 ,129.2289224,33,-178.5559934,0\H,40,1.098599425,39,111.4296084,38,-139
 .5649349,0\H,40,1.097763358,39,111.8057002,38,-18.4761624,0\H,40,1.099
 459751,39,110.0571556,38,101.1659347,0\C,35,1.520402179,34,113.8338114
 ,33,-114.3643147,0\O,44,1.361354746,35,114.7917283,34,52.86856827,0\C,
 45,1.413137395,44,118.5951104,35,-179.6048155,0\H,46,1.092923053,45,10
 2.1475071,44,179.3825314,0\H,46,1.095546045,45,111.6162456,44,61.22407
 98,0\H,46,1.095141422,45,111.8366825,44,-62.31919921,0\O,44,1.21708051
 6,45,119.4300928,46,1.27094808,0\H,35,1.118521327,34,109.1912361,33,12
 4.4862076,0\H,30,1.10505836,31,121.0382523,32,-177.9634097,0\C,29,1.48
 3296804,28,109.956672,27,1.33332825,0\C,27,1.484276884,28,106.3178598,
 29,-1.62939461,0\C,54,1.469626864,27,124.792159,28,-179.4283485,0\H,55
 ,1.098080466,54,111.7902463,27,29.57169205,0\H,55,1.099068963,54,111.1
 943202,27,150.3418955,0\H,55,1.099531393,54,110.4691171,27,-90.4559585
 2,0\C,53,1.478241973,29,123.0411951,28,178.6202911,0\C,59,1.51449227,5
 3,112.048856,29,110.2814279,0\H,60,1.09747409,59,111.6982723,53,-60.38
 075417,0\H,60,1.098940582,59,111.2974651,53,59.57582431,0\H,60,1.09723
 5917,59,111.0924707,53,179.4991111,0\H,59,1.108566772,53,109.3608846,2
 9,-127.1764936,0\H,59,1.114332596,53,108.3312652,29,-11.72552095,0\H,2
 6,1.10627943,14,113.7473591,13,179.3583513,0\H,11,1.105307516,12,116.6
 132584,13,-179.9141481,0\C,1,1.527890089,2,112.1113906,3,106.1116671,0
 \C,68,1.521938262,1,110.6341014,2,-173.852869,0\C,69,1.509862784,68,11
 1.3738972,1,-175.8911625,0\O,70,1.364827571,69,124.7349586,68,91.32313
 571,0\C,71,1.419780495,70,120.0216196,69,-1.53579516,0\C,72,1.49279739
 5,71,112.8431246,70,75.73872435,0\C,73,1.340313285,72,124.4897243,71,-
 134.2746142,0\C,74,1.49965118,73,121.1259633,72,179.9776789,0\C,75,1.5
 23702881,74,114.558844,73,39.01645038,0\C,76,1.522488994,75,113.570945
 4,74,88.71275449,0\C,77,1.5297309,76,112.6086408,75,-78.7026079,0\C,78
 ,1.531637244,77,112.091823,76,169.6495064,0\C,79,1.523330297,78,114.47
 56319,77,66.80800378,0\C,80,1.522416482,79,113.1307844,78,-98.63824443
 ,0\C,81,1.529188544,80,111.1169946,79,162.2779995,0\C,82,1.529065092,8
 1,110.6840892,80,172.4686541,0\C,83,1.520062716,82,111.0325311,81,-172
 .7039113,0\C,84,1.519535588,83,112.040784,82,-170.6370099,0\C,85,1.529
 990206,84,111.309434,83,172.0347574,0\C,86,1.519110413,85,110.4310248,
 84,172.2527684,0\H,87,1.097737417,86,111.1697933,85,179.6516049,0\H,87
 ,1.098480683,86,111.635534,85,59.74737143,0\H,87,1.097843424,86,111.47
 7371,85,-60.373041,0\C,86,1.520671646,85,110.5463888,84,-65.13902923,0
 \H,91,1.098109562,86,111.717323,85,-69.14183961,0\H,91,1.096714835,86,
 111.6199761,85,170.3625617,0\H,91,1.103316002,86,110.2926244,85,50.169
 47262,0\H,86,1.117931198,85,108.2773551,84,53.5712942,0\H,85,1.1090909
 42,84,110.2705897,83,50.17211944,0\H,85,1.108108335,84,109.9420498,83,
 -65.94731073,0\H,84,1.108149041,83,110.0833664,82,66.45587343,0\H,84,1
 .120722564,83,109.5294363,82,-48.89256869,0\H,83,1.109099724,82,109.67
 23428,81,65.10573515,0\H,83,1.108197107,82,110.12649,81,-50.75347071,0
 \C,82,1.521904817,81,110.3218751,80,-65.00633204,0\H,102,1.10234592,82
 ,110.4697372,81,59.68728867,0\H,102,1.101639829,82,110.5596896,81,-179
 .3438223,0\H,102,1.098931049,82,111.744333,81,-59.60659524,0\H,82,1.11
 8419108,81,108.3622176,80,53.75527152,0\H,81,1.108190844,80,109.904700
 9,79,-75.53807349,0\H,81,1.11001428,80,110.5361399,79,40.45510998,0\H,
 80,1.120765363,79,109.6752358,78,23.8573798,0\H,80,1.10738241,79,109.8
 715066,78,139.0667157,0\H,79,1.108431955,78,107.8457439,77,-171.796998
 7,0\H,79,1.108662586,78,109.4476163,77,-57.49864379,0\C,78,1.520819964
 ,77,110.3379898,76,-65.93007808,0\H,113,1.102972481,78,110.3727376,77,
 48.62545085,0\H,113,1.096469642,78,111.6870305,77,168.8918238,0\H,113,
 1.103280026,78,110.9251917,77,-70.9485109,0\H,78,1.121077858,77,107.32
 7005,76,51.87556281,0\H,77,1.111307507,76,109.2515107,75,159.7009503,0
 \H,77,1.10937151,76,110.1176666,75,44.11310372,0\H,76,1.106893971,75,1
 08.8837894,74,-149.7818337,0\H,76,1.119666199,75,109.9208365,74,-34.04
 878198,0\H,75,1.10960784,74,109.7922949,73,163.2039277,0\H,75,1.109232
 616,74,107.0884559,73,-82.72803874,0\C,74,1.486606987,73,123.4300676,7
 2,1.64220709,0\H,124,1.104493116,74,112.2704766,73,5.43133594,0\H,124,
 1.09919425,74,110.9011139,73,125.809724,0\H,124,1.098634102,74,110.316
 7076,73,-114.6359098,0\H,73,1.103439189,72,116.6385648,71,48.48068462,
 0\H,72,1.104936838,71,101.3276938,70,-166.3342272,0\H,72,1.113530415,7
 1,111.4665396,70,-51.46146713,0\O,70,1.213987449,71,108.5952995,72,178
 .7921495,0\H,69,1.114137592,68,108.8262195,1,63.07480091,0\H,69,1.1120
 07602,68,110.6435179,1,-52.7455647,0\H,68,1.108519938,1,110.4875699,2,
 -51.74842596,0\H,68,1.108914258,1,109.4768208,2,64.32760357,0\H,1,1.11
 8953478,2,110.27939,3,-132.0945459,0\Mg,32,13.91398771,33,97.31279725,
 34,96.4103502,0\\Version=ES64L-G16RevA.03\State=1-A\HF=-2935.0300218\R
 MSD=3.577e-09\PG=C01 [X(C55H72Mg1N4O5)]\\@


 WORK FAITHFULLY FOR EIGHT HOURS A DAY AND DON'T WORRY.
 IN TIME YOU MAY BECOME BOSS AND WORK TWELVE HOURS A DAY
 AND HAVE ALL THE WORRY.
 Job cpu time:      13 days 16 hours 50 minutes 33.6 seconds.
 Elapsed time:       3 days 10 hours 39 minutes 30.3 seconds.
 File lengths (MBytes):  RWF=  20935 Int=      0 D2E=      0 Chk=   1656 Scr=      1
 Normal termination of Gaussian 16 at Sat Jan 12 05:08:47 2019.


