

 Entering Gaussian System, Link 0=/usr/local/bin/webmo/g16/g16
 Initial command:
 /usr/local/bin/webmo/g16/l1.exe "/tmp/webmo-12180/7691/Gau-73022.inp" -scrdir="/tmp/webmo-12180/7691/"
 Entering Link 1 = /usr/local/bin/webmo/g16/l1.exe PID=     73023.
  
 Copyright (c) 1988,1990,1992,1993,1995,1998,2003,2009,2016,
            Gaussian, Inc.  All Rights Reserved.
  
 This is part of the Gaussian(R) 16 program.  It is based on
 the Gaussian(R) 09 system (copyright 2009, Gaussian, Inc.),
 the Gaussian(R) 03 system (copyright 2003, Gaussian, Inc.),
 the Gaussian(R) 98 system (copyright 1998, Gaussian, Inc.),
 the Gaussian(R) 94 system (copyright 1995, Gaussian, Inc.),
 the Gaussian 92(TM) system (copyright 1992, Gaussian, Inc.),
 the Gaussian 90(TM) system (copyright 1990, Gaussian, Inc.),
 the Gaussian 88(TM) system (copyright 1988, Gaussian, Inc.),
 the Gaussian 86(TM) system (copyright 1986, Carnegie Mellon
 University), and the Gaussian 82(TM) system (copyright 1983,
 Carnegie Mellon University). Gaussian is a federally registered
 trademark of Gaussian, Inc.
  
 This software contains proprietary and confidential information,
 including trade secrets, belonging to Gaussian, Inc.
  
 This software is provided under written license and may be
 used, copied, transmitted, or stored only in accord with that
 written license.
  
 The following legend is applicable only to US Government
 contracts under FAR:
  
                    RESTRICTED RIGHTS LEGEND
  
 Use, reproduction and disclosure by the US Government is
 subject to restrictions as set forth in subparagraphs (a)
 and (c) of the Commercial Computer Software - Restricted
 Rights clause in FAR 52.227-19.
  
 Gaussian, Inc.
 340 Quinnipiac St., Bldg. 40, Wallingford CT 06492
  
  
 ---------------------------------------------------------------
 Warning -- This program may not be used in any manner that
 competes with the business of Gaussian, Inc. or will provide
 assistance to any competitor of Gaussian, Inc.  The licensee
 of this program is prohibited from giving any competitor of
 Gaussian, Inc. access to this program.  By using this program,
 the user acknowledges that Gaussian, Inc. is engaged in the
 business of creating and licensing software in the field of
 computational chemistry and represents and warrants to the
 licensee that it is not a competitor of Gaussian, Inc. and that
 it will not use this program in any manner prohibited above.
 ---------------------------------------------------------------
  

 Cite this work as:
 Gaussian 16, Revision A.03,
 M. J. Frisch, G. W. Trucks, H. B. Schlegel, G. E. Scuseria, 
 M. A. Robb, J. R. Cheeseman, G. Scalmani, V. Barone, 
 G. A. Petersson, H. Nakatsuji, X. Li, M. Caricato, A. V. Marenich, 
 J. Bloino, B. G. Janesko, R. Gomperts, B. Mennucci, H. P. Hratchian, 
 J. V. Ortiz, A. F. Izmaylov, J. L. Sonnenberg, D. Williams-Young, 
 F. Ding, F. Lipparini, F. Egidi, J. Goings, B. Peng, A. Petrone, 
 T. Henderson, D. Ranasinghe, V. G. Zakrzewski, J. Gao, N. Rega, 
 G. Zheng, W. Liang, M. Hada, M. Ehara, K. Toyota, R. Fukuda, 
 J. Hasegawa, M. Ishida, T. Nakajima, Y. Honda, O. Kitao, H. Nakai, 
 T. Vreven, K. Throssell, J. A. Montgomery, Jr., J. E. Peralta, 
 F. Ogliaro, M. J. Bearpark, J. J. Heyd, E. N. Brothers, K. N. Kudin, 
 V. N. Staroverov, T. A. Keith, R. Kobayashi, J. Normand, 
 K. Raghavachari, A. P. Rendell, J. C. Burant, S. S. Iyengar, 
 J. Tomasi, M. Cossi, J. M. Millam, M. Klene, C. Adamo, R. Cammi, 
 J. W. Ochterski, R. L. Martin, K. Morokuma, O. Farkas, 
 J. B. Foresman, and D. J. Fox, Gaussian, Inc., Wallingford CT, 2016.
 
 ******************************************
 Gaussian 16:  ES64L-G16RevA.03 25-Dec-2016
                 8-Jan-2019 
 ******************************************
 %NProcShared=4
 Will use up to    4 processors via shared memory.
 -------------------------------------------------------
 #N TD(NStates=10) B3LYP/6-311+G(2d,p) Geom=Connectivity
 -------------------------------------------------------
 1/38=1,57=2,172=1/1;
 2/12=2,17=6,18=5,40=1/2;
 3/5=4,6=6,7=112,11=9,25=1,30=1,74=-5/1,2,3,8;
 4//1;
 5/5=2,38=5/2;
 8/6=1,10=2,108=10/1;
 9/41=10,42=1,70=2/14;
 6/7=2,8=2,9=2,10=2/1;
 99/5=1,9=1/99;
 ----------
 C16H10O2N2
 ----------
 Symbolic Z-matrix:
 Charge =  0 Multiplicity = 1
 C
 C                    1    B1
 C                    2    B2       1    A1
 C                    3    B3       2    A2       1    D1       0
 C                    4    B4       3    A3       2    D2       0
 C                    5    B5       4    A4       3    D3       0
 C                    6    B6       5    A5       4    D4       0
 C                    7    B7       6    A6       5    D5       0
 C                    8    B8       7    A7       6    D6       0
 C                    9    B9       8    A8       7    D7       0
 C                    10   B10      9    A9       8    D8       0
 C                    11   B11      10   A10      9    D9       0
 N                    5    B12      4    A11      3    D10      0
 H                    13   B13      5    A12      4    D11      0
 H                    11   B14      12   A13      13   D12      0
 H                    10   B15      11   A14      12   D13      0
 H                    9    B16      8    A15      7    D14      0
 H                    8    B17      7    A16      6    D15      0
 O                    6    B18      5    A17      4    D16      0
 N                    4    B19      5    A18      6    D17      0
 C                    20   B20      4    A19      5    D18      0
 C                    21   B21      20   A20      4    D19      0
 C                    22   B22      21   A21      20   D20      0
 C                    1    B23      2    A22      3    D21      0
 H                    24   B24      1    A23      2    D22      0
 H                    23   B25      22   A24      21   D23      0
 H                    22   B26      21   A25      20   D24      0
 H                    20   B27      4    A26      5    D25      0
 O                    3    B28      4    A27      5    D26      0
 H                    1    B29      2    A28      3    D27      0
       Variables:
  B1                    1.38398                  
  B2                    1.48374                  
  B3                    1.50868                  
  B4                    1.35091                  
  B5                    1.50868                  
  B6                    1.48374                  
  B7                    1.38398                  
  B8                    1.39609                  
  B9                    1.39263                  
  B10                   1.39519                  
  B11                   1.389                    
  B12                   1.44338                  
  B13                   0.99313                  
  B14                   1.09479                  
  B15                   1.09563                  
  B16                   1.09511                  
  B17                   1.0952                   
  B18                   1.21211                  
  B19                   1.44338                  
  B20                   1.43686                  
  B21                   1.389                    
  B22                   1.39519                  
  B23                   1.39609                  
  B24                   1.09511                  
  B25                   1.09563                  
  B26                   1.09479                  
  B27                   0.99313                  
  B28                   1.21211                  
  B29                   1.0952                   
  A1                  130.98946                  
  A2                  104.88316                  
  A3                  128.1259                   
  A4                  128.1259                   
  A5                  104.88316                  
  A6                  130.98946                  
  A7                  118.16869                  
  A8                  121.00577                  
  A9                  121.42337                  
  A10                 117.43495                  
  A11                 123.93191                  
  A12                 117.95248                  
  A13                 121.56621                  
  A14                 119.14027                  
  A15                 119.43482                  
  A16                 120.653                    
  A17                 127.13745                  
  A18                 123.93191                  
  A19                 107.37336                  
  A20                 128.05467                  
  A21                 117.43495                  
  A22                 118.16869                  
  A23                 119.43482                  
  A24                 119.14027                  
  A25                 121.56621                  
  A26                 117.95248                  
  A27                 127.13745                  
  A28                 120.653                    
  D1                 -177.54862                  
  D2                  175.98496                  
  D3                  180.                       
  D4                 -175.98496                  
  D5                  177.54862                  
  D6                 -179.32057                  
  D7                    0.04609                  
  D8                   -0.20826                  
  D9                   -0.06346                  
  D10                  -4.24182                  
  D11                  37.85135                  
  D12                   4.3811                   
  D13                 179.87864                  
  D14                 179.9753                   
  D15                   0.55538                  
  D16                   4.68787                  
  D17                   4.24182                  
  D18                -173.17456                  
  D19                 174.4073                   
  D20                 175.55356                  
  D21                 179.32057                  
  D22                -179.9753                   
  D23                -179.87864                  
  D24                  -4.3811                   
  D25                 -37.85135                  
  D26                  -4.68787                  
  D27                  -0.55538                  
 
                          Input orientation:                          
 ---------------------------------------------------------------------
 Center     Atomic      Atomic             Coordinates (Angstroms)
 Number     Number       Type             X           Y           Z
 ---------------------------------------------------------------------
      1          6           0        0.000000    0.000000    0.000000
      2          6           0        0.000000    0.000000    1.383977
      3          6           0        1.119971    0.000000    2.357192
      4          6           0        0.456970   -0.062364    3.710948
      5          6           0        1.044313   -0.159535    4.923614
      6          6           0        0.381311   -0.221899    6.277370
      7          6           0        1.501283   -0.221899    7.250585
      8          6           0        1.501283   -0.221899    8.634562
      9          6           0        2.731939   -0.207305    9.293615
     10          6           0        3.927742   -0.192163    8.579994
     11          6           0        3.942343   -0.195323    7.184885
     12          6           0        2.716465   -0.215550    6.532094
     13          7           0        2.466226   -0.310504    5.120387
     14          1           0        3.075496    0.187396    4.514417
     15          1           0        4.886531   -0.183369    6.630868
     16          1           0        4.878983   -0.178405    9.123468
     17          1           0        2.756131   -0.206607   10.388456
     18          1           0        0.559161   -0.231031    9.192935
     19          8           0       -0.807454   -0.274100    6.508302
     20          7           0       -0.964943    0.088605    3.514175
     21          6           0       -1.215182   -0.006349    2.102468
     22          6           0       -2.441061   -0.026576    1.449677
     23          6           0       -2.426459   -0.029736    0.054568
     24          6           0       -1.230657   -0.014594   -0.659053
     25          1           0       -1.254848   -0.015292   -1.753894
     26          1           0       -3.377701   -0.043494   -0.488905
     27          1           0       -3.385248   -0.038530    2.003694
     28          1           0       -1.574213   -0.409295    4.120145
     29          8           0        2.308737    0.052201    2.126260
     30          1           0        0.942122    0.009132   -0.558372
 ---------------------------------------------------------------------
                    Distance matrix (angstroms):
                    1          2          3          4          5
     1  C    0.000000
     2  C    1.383977   0.000000
     3  C    2.609730   1.483739   0.000000
     4  C    3.739498   2.372236   1.508680   0.000000
     5  C    5.035674   3.693923   2.572489   1.350915   0.000000
     6  C    6.292854   4.913241   3.995329   2.572489   1.508680
     7  C    7.407703   6.059717   4.913241   3.693923   2.372236
     8  C    8.766912   7.407703   6.292854   5.035674   3.739498
     9  C    9.689053   8.370713   7.124281   6.030146   4.684792
    10  C    9.438241   8.200411   6.829625   5.980862   4.656646
    11  C    8.197731   7.016463   5.595584   4.922778   3.676032
    12  C    7.077704   5.824839   4.474937   3.617685   2.320871
    13  N    5.691840   4.487699   3.089346   2.466820   1.443381
    14  H    5.465689   4.392431   2.917673   2.750385   2.100835
    15  H    8.238945   7.172285   5.699553   5.306749   4.204513
    16  H   10.347655   9.150739   7.742382   6.990210   5.687163
    17  H   10.749836   9.419108   8.198836   7.063714   5.726870
    18  H    9.212822   7.832359   6.862599   5.485532   4.297393
    19  O    6.563925   5.194788   4.584955   3.077140   2.439959
    20  N    3.645325   2.340237   2.386070   1.443381   2.466820
    21  C    2.428390   1.411714   2.349014   2.320871   3.617685
    22  C    2.839198   2.442089   3.674947   3.676032   4.922778
    23  C    2.427255   2.766933   4.228491   4.656646   5.980862
    24  C    1.396094   2.385100   3.824055   4.684792   6.030146
    25  H    2.156623   3.379514   4.747739   5.726870   7.063714
    26  H    3.413178   3.862440   5.322708   5.687163   6.990210
    27  H    3.933978   3.441720   4.519231   4.204513   5.306749
    28  H    4.429590   3.183125   3.245637   2.100835   2.750385
    29  O    3.139104   2.425690   1.212113   2.439959   3.077140
    30  H    1.095197   2.158796   2.920998   4.297393   5.485532
                    6          7          8          9         10
     6  C    0.000000
     7  C    1.483739   0.000000
     8  C    2.609730   1.383977   0.000000
     9  C    3.824055   2.385100   1.396094   0.000000
    10  C    4.228491   2.766933   2.427255   1.392634   0.000000
    11  C    3.674947   2.442089   2.839198   2.431453   1.395189
    12  C    2.349014   1.411714   2.428390   2.761577   2.379419
    13  N    2.386070   2.340237   3.645325   4.182952   3.757515
    14  H    3.245637   3.183125   4.429590   4.807760   4.171248
    15  H    4.519231   3.441720   3.933978   3.425356   2.172199
    16  H    5.322708   3.862440   3.413178   2.153969   1.095633
    17  H    4.747739   3.379514   2.156623   1.095109   2.154859
    18  H    2.920998   2.158796   1.095197   2.175239   3.424112
    19  O    1.212113   2.425690   3.139104   4.504413   5.169207
    20  N    3.089346   4.487699   5.691840   6.867054   7.048385
    21  C    4.474937   5.824839   7.077704   8.205654   8.273001
    22  C    5.595584   7.016463   8.197731   9.397870   9.561929
    23  C    6.829625   8.200411   9.438241  10.583034  10.634150
    24  C    7.124281   8.370713   9.689053  10.714239  10.583034
    25  H    8.198836   9.419108  10.749836  11.746438  11.561997
    26  H    7.742382   9.150739  10.347655  11.534828  11.646310
    27  H    5.699553   7.172285   8.238945   9.517952   9.836216
    28  H    2.917673   4.392431   5.465689   6.734133   7.085825
    29  O    4.584955   5.194788   6.563925   7.184527   6.658196
    30  H    6.862599   7.832359   9.212822  10.015586   9.615831
                   11         12         13         14         15
    11  C    0.000000
    12  C    1.389001   0.000000
    13  N    2.540540   1.436855   0.000000
    14  H    2.833602   2.088610   0.993133   0.000000
    15  H    1.094791   2.172551   2.855800   2.810103   0.000000
    16  H    2.153064   3.375364   4.675842   4.962834   2.492616
    17  H    3.416152   3.856577   5.277063   5.895894   4.319562
    18  H    3.934394   3.425532   4.497650   5.328747   5.029174
    19  O    4.798390   3.524486   3.555926   4.389289   5.696027
    20  N    6.134834   4.770022   3.809478   4.163579   6.635322
    21  C    7.243393   5.926483   4.770022   4.925947   7.600569
    22  C    8.583061   7.243393   6.134834   6.314334   8.975685
    23  C    9.561929   8.273001   7.048385   7.085825   9.836216
    24  C    9.397870   8.205654   6.867054   6.734133   9.517952
    25  H   10.341421   9.190704   7.822358   7.621331  10.394663
    26  H   10.606279   9.298543   8.104748   8.168861  10.909091
    27  H    8.975685   7.600569   6.635322   6.935127   9.479137
    28  H    6.314334   4.925947   4.163579   4.704390   6.935127
    29  O    5.321619   4.432754   3.020125   2.511870   5.195383
    30  H    8.306694   7.312557   5.888410   5.506020   8.202475
                   16         17         18         19         20
    16  H    0.000000
    17  H    2.471335   0.000000
    18  H    4.320701   2.501308   0.000000
    19  O    6.259698   5.268708   3.012763   0.000000
    20  N    8.104748   7.822358   5.888410   3.020125   0.000000
    21  C    9.298543   9.190704   7.312557   4.432754   1.436855
    22  C   10.606279  10.341421   8.306694   5.321619   2.540539
    23  C   11.646310  11.561997   9.615831   6.658196   3.757515
    24  C   11.534828  11.746438  10.015586   7.184527   4.182952
    25  H   12.488695  12.789106  11.098208   8.278347   5.277063
    26  H   12.672362  12.488695  10.453328   7.457899   4.675842
    27  H   10.909091  10.394663   8.202475   5.195383   2.855800
    28  H    8.168861   7.621331   5.506020   2.511870   0.993133
    29  O    7.457899   8.278347   7.285542   5.386967   3.555926
    30  H   10.453328  11.098208   9.761779   7.285542   4.497650
                   21         22         23         24         25
    21  C    0.000000
    22  C    1.389001   0.000000
    23  C    2.379419   1.395189   0.000000
    24  C    2.761577   2.431453   1.392634   0.000000
    25  H    3.856577   3.416152   2.154859   1.095109   0.000000
    26  H    3.375364   2.153064   1.095633   2.153969   2.471335
    27  H    2.172551   1.094791   2.172199   3.425356   4.319562
    28  H    2.088610   2.833602   4.171248   4.807760   5.895894
    29  O    3.524486   4.798390   5.169207   4.504413   5.268708
    30  H    3.425532   3.934394   3.424112   2.175239   2.501308
                   26         27         28         29         30
    26  H    0.000000
    27  H    2.492616   0.000000
    28  H    4.962834   2.810103   0.000000
    29  O    6.259698   5.696026   4.389289   0.000000
    30  H    4.320701   5.029174   5.328747   3.012763   0.000000
 Stoichiometry    C16H10N2O2
 Framework group  CI[X(C16H10N2O2)]
 Deg. of freedom    42
 Full point group                 CI      NOp   2
 Largest Abelian subgroup         CI      NOp   2
 Largest concise Abelian subgroup CI      NOp   2
                         Standard orientation:                         
 ---------------------------------------------------------------------
 Center     Atomic      Atomic             Coordinates (Angstroms)
 Number     Number       Type             X           Y           Z
 ---------------------------------------------------------------------
      1          6           0       -0.750641    0.110949   -4.317281
      2          6           0       -0.750641    0.110949   -2.933304
      3          6           0        0.369330    0.110949   -1.960089
      4          6           0       -0.293671    0.048586   -0.606333
      5          6           0        0.293671   -0.048586    0.606333
      6          6           0       -0.369330   -0.110949    1.960089
      7          6           0        0.750641   -0.110949    2.933304
      8          6           0        0.750641   -0.110949    4.317281
      9          6           0        1.981298   -0.096355    4.976334
     10          6           0        3.177101   -0.081214    4.262713
     11          6           0        3.191702   -0.084373    2.867604
     12          6           0        1.965824   -0.104601    2.214813
     13          7           0        1.715585   -0.199554    0.803106
     14          1           0        2.324855    0.298346    0.197136
     15          1           0        4.135890   -0.072420    2.313587
     16          1           0        4.128342   -0.067456    4.806187
     17          1           0        2.005489   -0.095657    6.071175
     18          1           0       -0.191480   -0.120082    4.875653
     19          8           0       -1.558095   -0.163150    2.191021
     20          7           0       -1.715585    0.199554   -0.803106
     21          6           0       -1.965824    0.104601   -2.214813
     22          6           0       -3.191702    0.084373   -2.867604
     23          6           0       -3.177101    0.081214   -4.262713
     24          6           0       -1.981298    0.096355   -4.976334
     25          1           0       -2.005489    0.095657   -6.071175
     26          1           0       -4.128342    0.067456   -4.806187
     27          1           0       -4.135890    0.072420   -2.313587
     28          1           0       -2.324855   -0.298346   -0.197136
     29          8           0        1.558095    0.163150   -2.191021
     30          1           0        0.191480    0.120082   -4.875653
 ---------------------------------------------------------------------
 Rotational constants (GHZ):           1.1410151           0.1702530           0.1482873
 Standard basis: 6-311+G(2d,p) (5D, 7F)
 There are   320 symmetry adapted cartesian basis functions of AG  symmetry.
 There are   320 symmetry adapted cartesian basis functions of AU  symmetry.
 There are   300 symmetry adapted basis functions of AG  symmetry.
 There are   300 symmetry adapted basis functions of AU  symmetry.
   600 basis functions,   920 primitive gaussians,   640 cartesian basis functions
    68 alpha electrons       68 beta electrons
       nuclear repulsion energy      1368.4149982736 Hartrees.
 NAtoms=   30 NActive=   30 NUniq=   15 SFac= 4.00D+00 NAtFMM=   60 NAOKFM=F Big=F
 Integral buffers will be    131072 words long.
 Regular integral format.
 Two-electron integral symmetry is turned on.
 One-electron integrals computed using PRISM.
 NBasis=   600 RedAO= T EigKep=  1.91D-06  NBF=   300   300
 NBsUse=   595 1.00D-06 EigRej=  9.71D-07 NBFU=   298   297
 ExpMin= 4.38D-02 ExpMax= 8.59D+03 ExpMxC= 1.30D+03 IAcc=3 IRadAn=         5 AccDes= 0.00D+00
 Harris functional with IExCor=  402 and IRadAn=       5 diagonalized for initial guess.
 HarFok:  IExCor=  402 AccDes= 0.00D+00 IRadAn=         5 IDoV= 1 UseB2=F ITyADJ=14
 ICtDFT=  3500011 ScaDFX=  1.000000  1.000000  1.000000  1.000000
 FoFCou: FMM=F IPFlag=           0 FMFlag=      100000 FMFlg1=           0
         NFxFlg=           0 DoJE=T BraDBF=F KetDBF=T FulRan=T
         wScrn=  0.000000 ICntrl=       500 IOpCl=  0 I1Cent=   200000004 NGrid=           0
         NMat0=    1 NMatS0=      1 NMatT0=    0 NMatD0=    1 NMtDS0=    0 NMtDT0=    0
 Petite list used in FoFCou.
 Initial guess orbital symmetries:
       Occupied  (AG) (AU) (AG) (AU) (AG) (AU) (AU) (AG) (AG) (AU)
                 (AU) (AG) (AG) (AU) (AU) (AG) (AG) (AU) (AG) (AU)
                 (AG) (AU) (AG) (AU) (AG) (AU) (AG) (AU) (AG) (AU)
                 (AG) (AU) (AG) (AU) (AG) (AU) (AG) (AU) (AG) (AU)
                 (AG) (AU) (AU) (AG) (AG) (AU) (AG) (AU) (AU) (AG)
                 (AG) (AU) (AG) (AU) (AG) (AG) (AU) (AG) (AU) (AU)
                 (AG) (AU) (AU) (AG) (AG) (AU) (AG) (AU)
       Virtual   (AG) (AU) (AG) (AU) (AG) (AU) (AG) (AU) (AU) (AG)
                 (AG) (AU) (AG) (AU) (AG) (AU) (AU) (AG) (AU) (AU)
                 (AG) (AG) (AG) (AU) (AG) (AU) (AG) (AU) (AG) (AU)
                 (AG) (AU) (AG) (AU) (AG) (AG) (AU) (AU) (AG) (AU)
                 (AG) (AU) (AU) (AG) (AG) (AU) (AU) (AG) (AU) (AG)
                 (AU) (AG) (AG) (AU) (AG) (AG) (AG) (AU) (AU) (AU)
                 (AG) (AU) (AG) (AU) (AU) (AG) (AU) (AG) (AU) (AU)
                 (AG) (AU) (AG) (AG) (AG) (AU) (AG) (AG) (AU) (AU)
                 (AG) (AU) (AG) (AU) (AG) (AU) (AG) (AU) (AU) (AG)
                 (AG) (AG) (AU) (AG) (AU) (AU) (AG) (AU) (AG) (AU)
                 (AG) (AG) (AU) (AG) (AU) (AG) (AU) (AU) (AG) (AU)
                 (AG) (AU) (AG) (AU) (AG) (AU) (AG) (AU) (AG) (AU)
                 (AG) (AG) (AU) (AU) (AG) (AU) (AG) (AG) (AU) (AG)
                 (AU) (AU) (AU) (AG) (AG) (AG) (AU) (AG) (AU) (AU)
                 (AG) (AU) (AG) (AG) (AU) (AG) (AU) (AG) (AG) (AU)
                 (AU) (AG) (AU) (AU) (AG) (AU) (AU) (AG) (AG) (AG)
                 (AU) (AU) (AG) (AU) (AG) (AG) (AG) (AU) (AU) (AU)
                 (AG) (AG) (AU) (AU) (AG) (AU) (AG) (AG) (AU) (AU)
                 (AG) (AU) (AG) (AU) (AG) (AG) (AU) (AG) (AU) (AU)
                 (AG) (AG) (AU) (AU) (AG) (AU) (AG) (AU) (AG) (AU)
                 (AG) (AU) (AG) (AU) (AG) (AG) (AU) (AG) (AU) (AG)
                 (AU) (AG) (AU) (AG) (AU) (AG) (AG) (AU) (AG) (AU)
                 (AG) (AU) (AG) (AU) (AG) (AU) (AG) (AU) (AG) (AU)
                 (AU) (AG) (AU) (AG) (AU) (AG) (AU) (AU) (AU) (AG)
                 (AG) (AG) (AG) (AU) (AU) (AG) (AU) (AG) (AG) (AU)
                 (AG) (AU) (AU) (AG) (AU) (AU) (AG) (AU) (AG) (AG)
                 (AU) (AG) (AU) (AU) (AG) (AU) (AG) (AU) (AG) (AU)
                 (AG) (AU) (AG) (AU) (AG) (AU) (AG) (AU) (AG) (AU)
                 (AG) (AU) (AG) (AU) (AG) (AU) (AU) (AG) (AG) (AU)
                 (AG) (AU) (AU) (AG) (AG) (AU) (AG) (AU) (AG) (AU)
                 (AG) (AU) (AG) (AU) (AG) (AU) (AU) (AG) (AG) (AU)
                 (AG) (AU) (AG) (AU) (AU) (AG) (AU) (AG) (AG) (AG)
                 (AU) (AU) (AU) (AG) (AG) (AG) (AU) (AU) (AG) (AU)
                 (AG) (AU) (AG) (AU) (AU) (AG) (AG) (AG) (AU) (AG)
                 (AU) (AU) (AG) (AU) (AU) (AG) (AG) (AU) (AG) (AU)
                 (AG) (AU) (AG) (AU) (AG) (AU) (AG) (AG) (AU) (AG)
                 (AU) (AU) (AG) (AU) (AG) (AG) (AU) (AG) (AU) (AU)
                 (AG) (AG) (AU) (AG) (AU) (AG) (AU) (AU) (AG) (AU)
                 (AG) (AG) (AU) (AU) (AG) (AG) (AU) (AG) (AU) (AG)
                 (AU) (AU) (AG) (AG) (AU) (AG) (AU) (AG) (AU) (AU)
                 (AG) (AG) (AU) (AG) (AG) (AG) (AU) (AU) (AU) (AG)
                 (AG) (AU) (AG) (AU) (AU) (AG) (AG) (AU) (AG) (AU)
                 (AG) (AU) (AU) (AG) (AG) (AU) (AU) (AU) (AG) (AU)
                 (AG) (AG) (AU) (AG) (AU) (AG) (AU) (AG) (AU) (AG)
                 (AU) (AG) (AU) (AU) (AG) (AU) (AG) (AG) (AU) (AG)
                 (AU) (AU) (AG) (AG) (AU) (AU) (AG) (AG) (AU) (AG)
                 (AU) (AG) (AG) (AU) (AG) (AU) (AU) (AG) (AU) (AG)
                 (AU) (AG) (AU) (AG) (AU) (AG) (AU) (AG) (AU) (AG)
                 (AU) (AG) (AU) (AG) (AU) (AG) (AG) (AU) (AU) (AG)
                 (AU) (AG) (AU) (AU) (AG) (AU) (AG) (AG) (AU) (AU)
                 (AG) (AU) (AG) (AU) (AG) (AU) (AG) (AG) (AU) (AG)
                 (AU) (AG) (AU) (AG) (AU) (AG) (AU) (AG) (AU) (AG)
                 (AU) (AU) (AG) (AU) (AG) (AU) (AG)
 The electronic state of the initial guess is 1-AG.
 Requested convergence on RMS density matrix=1.00D-08 within 128 cycles.
 Requested convergence on MAX density matrix=1.00D-06.
 Requested convergence on             energy=1.00D-06.
 No special actions if energy rises.
 SCF Done:  E(RB3LYP) =  -875.933872955     A.U. after   14 cycles
            NFock= 14  Conv=0.27D-08     -V/T= 2.0045
 DoSCS=F DFT=T ScalE2(SS,OS)=  1.000000  1.000000
 ExpMin= 4.38D-02 ExpMax= 8.59D+03 ExpMxC= 1.30D+03 IAcc=3 IRadAn=         5 AccDes= 0.00D+00
 HarFok:  IExCor=  205 AccDes= 0.00D+00 IRadAn=         5 IDoV=-2 UseB2=F ITyADJ=14
 ICtDFT= 12500011 ScaDFX=  1.000000  1.000000  1.000000  1.000000
 Range of M.O.s used for correlation:    21   595
 NBasis=   600 NAE=    68 NBE=    68 NFC=    20 NFV=     0
 NROrb=    575 NOA=    48 NOB=    48 NVA=   527 NVB=   527

 **** Warning!!: The largest alpha MO coefficient is  0.12297984D+03

 Orbital symmetries:
       Occupied  (AG) (AU) (AG) (AU) (AG) (AU) (AG) (AU) (AU) (AG)
                 (AU) (AG) (AG) (AU) (AU) (AG) (AG) (AU) (AU) (AG)
                 (AG) (AU) (AG) (AU) (AG) (AU) (AG) (AU) (AG) (AU)
                 (AG) (AU) (AG) (AU) (AG) (AU) (AG) (AU) (AG) (AU)
                 (AU) (AG) (AG) (AU) (AG) (AU) (AU) (AG) (AU) (AG)
                 (AU) (AG) (AG) (AG) (AU) (AU) (AG) (AU) (AG) (AU)
                 (AG) (AU) (AU) (AG) (AU) (AG) (AG) (AU)
       Virtual   (AG) (AU) (AG) (AU) (AG) (AG) (AU) (AG) (AU) (AG)
                 (AU) (AU) (AU) (AG) (AU) (AU) (AG) (AG) (AG) (AG)
                 (AU) (AU) (AG) (AU) (AU) (AG) (AG) (AG) (AU) (AU)
                 (AG) (AU) (AG) (AU) (AU) (AG) (AU) (AG) (AU) (AG)
                 (AU) (AG) (AG) (AU) (AG) (AU) (AU) (AG) (AG) (AG)
                 (AU) (AG) (AU) (AU) (AG) (AG) (AU) (AU) (AU) (AG)
                 (AG) (AU) (AG) (AU) (AU) (AG) (AU) (AG) (AG) (AU)
                 (AG) (AU) (AG) (AG) (AU) (AU) (AU) (AG) (AG) (AG)
                 (AU) (AU) (AU) (AG) (AG) (AU) (AG) (AG) (AG) (AU)
                 (AU) (AU) (AU) (AG) (AG) (AG) (AU) (AG) (AU) (AU)
                 (AU) (AG) (AG) (AU) (AG) (AG) (AU) (AU) (AU) (AG)
                 (AG) (AU) (AG) (AG) (AU) (AG) (AG) (AU) (AU) (AU)
                 (AG) (AU) (AG) (AG) (AU) (AG) (AU) (AG) (AU) (AG)
                 (AU) (AU) (AG) (AU) (AG) (AU) (AG) (AG) (AU) (AG)
                 (AU) (AU) (AG) (AU) (AG) (AG) (AU) (AU) (AG) (AG)
                 (AU) (AU) (AG) (AG) (AU) (AG) (AU) (AG) (AU) (AG)
                 (AU) (AU) (AG) (AG) (AU) (AG) (AU) (AU) (AG) (AG)
                 (AU) (AU) (AG) (AG) (AU) (AG) (AU) (AU) (AU) (AG)
                 (AG) (AU) (AG) (AU) (AG) (AG) (AU) (AG) (AU) (AU)
                 (AG) (AU) (AG) (AU) (AU) (AG) (AU) (AG) (AG) (AU)
                 (AG) (AU) (AG) (AU) (AG) (AG) (AG) (AU) (AU) (AU)
                 (AG) (AG) (AU) (AG) (AG) (AU) (AG) (AU) (AG) (AU)
                 (AG) (AG) (AU) (AU) (AU) (AU) (AG) (AU) (AG) (AG)
                 (AG) (AU) (AG) (AU) (AU) (AU) (AG) (AU) (AG) (AU)
                 (AG) (AG) (AG) (AU) (AU) (AG) (AU) (AG) (AG) (AU)
                 (AG) (AU) (AG) (AU) (AU) (AU) (AG) (AG) (AU) (AG)
                 (AU) (AU) (AG) (AG) (AU) (AG) (AU) (AU) (AG) (AU)
                 (AG) (AU) (AG) (AU) (AG) (AU) (AG) (AU) (AG) (AU)
                 (AG) (AU) (AG) (AU) (AG) (AU) (AU) (AG) (AG) (AU)
                 (AG) (AU) (AU) (AG) (AU) (AG) (AG) (AU) (AG) (AU)
                 (AG) (AU) (AG) (AG) (AU) (AU) (AU) (AG) (AG) (AU)
                 (AG) (AU) (AG) (AU) (AU) (AG) (AU) (AG) (AG) (AG)
                 (AU) (AU) (AG) (AU) (AG) (AU) (AG) (AU) (AU) (AG)
                 (AG) (AG) (AU) (AU) (AG) (AU) (AG) (AG) (AU) (AU)
                 (AG) (AU) (AG) (AU) (AG) (AG) (AU) (AU) (AG) (AU)
                 (AG) (AU) (AG) (AU) (AG) (AU) (AG) (AG) (AU) (AG)
                 (AU) (AG) (AU) (AU) (AG) (AG) (AU) (AG) (AU) (AU)
                 (AG) (AG) (AU) (AU) (AG) (AG) (AU) (AU) (AG) (AU)
                 (AG) (AG) (AU) (AU) (AU) (AG) (AG) (AG) (AU) (AG)
                 (AU) (AG) (AU) (AU) (AG) (AU) (AG) (AU) (AG) (AG)
                 (AU) (AG) (AG) (AU) (AG) (AU) (AG) (AU) (AU) (AG)
                 (AG) (AU) (AG) (AU) (AU) (AG) (AG) (AU) (AG) (AU)
                 (AG) (AU) (AU) (AG) (AG) (AU) (AU) (AU) (AG) (AG)
                 (AU) (AG) (AU) (AG) (AU) (AG) (AU) (AG) (AG) (AU)
                 (AU) (AG) (AU) (AU) (AG) (AG) (AU) (AG) (AU) (AG)
                 (AU) (AU) (AG) (AG) (AU) (AU) (AG) (AG) (AU) (AG)
                 (AU) (AG) (AG) (AU) (AG) (AU) (AU) (AG) (AU) (AG)
                 (AU) (AG) (AU) (AG) (AU) (AG) (AU) (AG) (AU) (AG)
                 (AU) (AG) (AU) (AG) (AU) (AG) (AG) (AU) (AU) (AG)
                 (AU) (AG) (AU) (AU) (AG) (AU) (AG) (AG) (AU) (AU)
                 (AG) (AU) (AG) (AU) (AG) (AU) (AG) (AG) (AU) (AG)
                 (AU) (AG) (AU) (AU) (AG) (AG) (AU) (AU) (AG) (AG)
                 (AU) (AU) (AG) (AU) (AG) (AU) (AG)
    40 initial guesses have been made.
 Convergence on wavefunction:    0.001000000000000
 Iteration     1 Dimension    40 NMult     0 NNew     40
 CISAX will form    20 AO SS matrices at one time.
 New state      4 was old state      7
 New state      5 was old state      4
 New state      6 was old state      5
 New state      7 was old state      6
 New state     10 was old state     12
 Iteration     2 Dimension    60 NMult    40 NNew     20
 Iteration     3 Dimension    80 NMult    60 NNew     20
 Iteration     4 Dimension   100 NMult    80 NNew     20
 Iteration     5 Dimension   116 NMult   100 NNew     16
 Iteration     6 Dimension   118 NMult   116 NNew      2
 ***********************************************************************
 Excited states from <AA,BB:AA,BB> singles matrix:
 ***********************************************************************
 
 Ground to excited state transition densities written to RWF  633
 Ground to excited state transition electric dipole moments (Au):
       state          X           Y           Z        Dip. S.      Osc.
         1        -0.2657      0.1015     -1.8456      3.4872      0.2101
         2         0.0000      0.0000     -0.0000      0.0000      0.0000
         3        -0.0000     -0.0000      0.0000      0.0000      0.0000
         4        -0.0820     -0.0040     -0.2021      0.0476      0.0039
         5        -0.0000     -0.0000     -0.0000      0.0000      0.0000
         6        -1.0089      0.0315     -1.4562      3.1395      0.2984
         7         0.0000     -0.0000      0.0000      0.0000      0.0000
         8         0.3514     -0.0588      0.9416      1.0136      0.1025
         9         1.1319     -0.0194      0.9185      2.1253      0.2348
        10         0.9273      0.0000      1.3346      2.6411      0.3025
 Ground to excited state transition velocity dipole moments (Au):
       state          X           Y           Z        Dip. S.      Osc.
         1         0.0235     -0.0094      0.1669      0.0285      0.2103
         2        -0.0000      0.0000      0.0000      0.0000      0.0000
         3         0.0000      0.0000      0.0000      0.0000      0.0000
         4         0.0099      0.0009      0.0249      0.0007      0.0039
         5         0.0000      0.0000     -0.0000      0.0000      0.0000
         6         0.1440     -0.0044      0.2083      0.0641      0.2999
         7        -0.0000      0.0000     -0.0000      0.0000      0.0000
         8        -0.0542      0.0091     -0.1421      0.0232      0.1020
         9        -0.1889      0.0030     -0.1509      0.0585      0.2352
        10        -0.1613      0.0002     -0.2321      0.0799      0.3100
 Ground to excited state transition magnetic dipole moments (Au):
       state          X           Y           Z
         1         0.0000     -0.0000     -0.0000
         2        -0.5057      1.0598      0.1174
         3        -0.6354     -0.9441      0.1315
         4        -0.0000     -0.0000      0.0000
         5        -0.0787      0.9953     -0.0568
         6        -0.0000     -0.0000      0.0000
         7         0.0259     -0.5986     -0.0050
         8        -0.0000      0.0000      0.0000
         9         0.0000      0.0000     -0.0000
        10         0.0000      0.0000     -0.0000
 Ground to excited state transition velocity quadrupole moments (Au):
       state          XX          YY          ZZ          XY          XZ          YZ
         1         0.0000      0.0000      0.0000     -0.0000      0.0000     -0.0000
         2         0.1475      0.0009     -0.0073      0.0019      0.2545      0.0259
         3        -0.1464     -0.0048     -0.0084      0.0008     -0.2462      0.0272
         4        -0.0000     -0.0000      0.0000     -0.0000      0.0000      0.0000
         5         0.2784     -0.0067     -0.5483     -0.0253      0.2715      0.0212
         6         0.0000      0.0000      0.0000      0.0000     -0.0000      0.0000
         7        -0.3534     -0.0130     -0.9602      0.0341     -0.8974      0.0001
         8         0.0000      0.0000      0.0000      0.0000      0.0000      0.0000
         9         0.0000      0.0000     -0.0000     -0.0000     -0.0000     -0.0000
        10         0.0000     -0.0000     -0.0000     -0.0000     -0.0000     -0.0000
 <0|del|b> * <b|rxdel|0> + <0|del|b> * <b|delr+rdel|0>
 Rotatory Strengths (R) in cgs (10**-40 erg-esu-cm/Gauss)
       state          XX          YY          ZZ    R(velocity)    E-M Angle
         1        -0.0000     -0.0000      0.0000     -0.0000       90.00
         2         0.0000      0.0000      0.0000      0.0000       90.00
         3        -0.0000     -0.0000     -0.0000     -0.0000       90.00
         4        -0.0000      0.0000     -0.0000     -0.0000       90.00
         5         0.0000     -0.0000      0.0000      0.0000       90.00
         6         0.0000     -0.0000     -0.0000     -0.0000       90.00
         7        -0.0000      0.0000     -0.0000     -0.0000       90.00
         8        -0.0000     -0.0000      0.0000      0.0000       90.00
         9         0.0000     -0.0000     -0.0000     -0.0000       90.00
        10         0.0000     -0.0000     -0.0000     -0.0000       90.00
 1/2[<0|r|b>*<b|rxdel|0> + (<0|rxdel|b>*<b|r|0>)*]
 Rotatory Strengths (R) in cgs (10**-40 erg-esu-cm/Gauss)
       state          XX          YY          ZZ     R(length)
         1         0.0000      0.0000     -0.0000     -0.0000
         2         0.0000     -0.0000      0.0000      0.0000
         3        -0.0000     -0.0000     -0.0000     -0.0000
         4        -0.0000     -0.0000      0.0000     -0.0000
         5        -0.0000      0.0000     -0.0000     -0.0000
         6        -0.0000      0.0000      0.0000     -0.0000
         7        -0.0000     -0.0000      0.0000     -0.0000
         8         0.0000      0.0000     -0.0000      0.0000
         9        -0.0000      0.0000      0.0000     -0.0000
        10        -0.0000     -0.0000      0.0000     -0.0000
  1/2[<0|del|b>*<b|r|0> + (<0|r|b>*<b|del|0>)*] (Au)
       state          X           Y           Z        Dip. S.   Osc.(frdel)
         1        -0.0062     -0.0010     -0.3081      0.3153      0.2102
         2        -0.0000      0.0000     -0.0000      0.0000      0.0000
         3        -0.0000     -0.0000      0.0000      0.0000      0.0000
         4        -0.0008     -0.0000     -0.0050      0.0058      0.0039
         5        -0.0000     -0.0000      0.0000      0.0000      0.0000
         6        -0.1453     -0.0001     -0.3033      0.4488      0.2992
         7        -0.0000     -0.0000     -0.0000      0.0000      0.0000
         8        -0.0190     -0.0005     -0.1338      0.1534      0.1023
         9        -0.2138     -0.0001     -0.1386      0.3525      0.2350
        10        -0.1496      0.0000     -0.3097      0.4593      0.3062

 Excitation energies and oscillator strengths:
 
 Excited State   1:      Singlet-AU     2.4592 eV  504.16 nm  f=0.2101  <S**2>=0.000
      68 -> 69         0.70136
 This state for optimization and/or second-order correction.
 Total Energy, E(TD-HF/TD-DFT) =  -875.843498087    
 Copying the excited state density for this state as the 1-particle RhoCI density.
 
 Excited State   2:      Singlet-AG     2.7610 eV  449.05 nm  f=0.0000  <S**2>=0.000
      66 -> 69         0.31687
      67 -> 69         0.62620
 
 Excited State   3:      Singlet-AG     2.9856 eV  415.28 nm  f=0.0000  <S**2>=0.000
      66 -> 69         0.62066
      67 -> 69        -0.32046
 
 Excited State   4:      Singlet-AU     3.3699 eV  367.92 nm  f=0.0039  <S**2>=0.000
      63 -> 69         0.66297
      65 -> 69         0.13335
      66 -> 70        -0.15194
 
 Excited State   5:      Singlet-AG     3.7571 eV  330.00 nm  f=0.0000  <S**2>=0.000
      64 -> 69         0.21840
      68 -> 70         0.66291
 
 Excited State   6:      Singlet-AU     3.8800 eV  319.54 nm  f=0.2984  <S**2>=0.000
      63 -> 69        -0.11967
      65 -> 69         0.67692
 
 Excited State   7:      Singlet-AG     4.0069 eV  309.43 nm  f=0.0000  <S**2>=0.000
      64 -> 69         0.65951
      68 -> 70        -0.22556
 
 Excited State   8:      Singlet-AU     4.1283 eV  300.33 nm  f=0.1025  <S**2>=0.000
      62 -> 69         0.67521
      63 -> 69        -0.10174
      67 -> 70         0.11120
 
 Excited State   9:      Singlet-AU     4.5097 eV  274.93 nm  f=0.2348  <S**2>=0.000
      66 -> 70         0.13334
      67 -> 70         0.65640
 
 Excited State  10:      Singlet-AU     4.6752 eV  265.20 nm  f=0.3025  <S**2>=0.000
      68 -> 71         0.68717
 SavETr:  write IOETrn=   770 NScale= 10 NData=  16 NLR=1 NState=   10 LETran=     190.

 **********************************************************************

            Population analysis using the SCF density.

 **********************************************************************

 Orbital symmetries:
       Occupied  (AG) (AU) (AG) (AU) (AG) (AU) (AG) (AU) (AU) (AG)
                 (AU) (AG) (AG) (AU) (AU) (AG) (AG) (AU) (AU) (AG)
                 (AG) (AU) (AG) (AU) (AG) (AU) (AG) (AU) (AG) (AU)
                 (AG) (AU) (AG) (AU) (AG) (AU) (AG) (AU) (AG) (AU)
                 (AU) (AG) (AG) (AU) (AG) (AU) (AU) (AG) (AU) (AG)
                 (AU) (AG) (AG) (AG) (AU) (AU) (AG) (AU) (AG) (AU)
                 (AG) (AU) (AU) (AG) (AU) (AG) (AG) (AU)
       Virtual   (AG) (AU) (AG) (AU) (AG) (AG) (AU) (AG) (AU) (AG)
                 (AU) (AU) (AU) (AG) (AU) (AU) (AG) (AG) (AG) (AG)
                 (AU) (AU) (AG) (AU) (AU) (AG) (AG) (AG) (AU) (AU)
                 (AG) (AU) (AG) (AU) (AU) (AG) (AU) (AG) (AU) (AG)
                 (AU) (AG) (AG) (AU) (AG) (AU) (AU) (AG) (AG) (AG)
                 (AU) (AG) (AU) (AU) (AG) (AG) (AU) (AU) (AU) (AG)
                 (AG) (AU) (AG) (AU) (AU) (AG) (AU) (AG) (AG) (AU)
                 (AG) (AU) (AG) (AG) (AU) (AU) (AU) (AG) (AG) (AG)
                 (AU) (AU) (AU) (AG) (AG) (AU) (AG) (AG) (AG) (AU)
                 (AU) (AU) (AU) (AG) (AG) (AG) (AU) (AG) (AU) (AU)
                 (AU) (AG) (AG) (AU) (AG) (AG) (AU) (AU) (AU) (AG)
                 (AG) (AU) (AG) (AG) (AU) (AG) (AG) (AU) (AU) (AU)
                 (AG) (AU) (AG) (AG) (AU) (AG) (AU) (AG) (AU) (AG)
                 (AU) (AU) (AG) (AU) (AG) (AU) (AG) (AG) (AU) (AG)
                 (AU) (AU) (AG) (AU) (AG) (AG) (AU) (AU) (AG) (AG)
                 (AU) (AU) (AG) (AG) (AU) (AG) (AU) (AG) (AU) (AG)
                 (AU) (AU) (AG) (AG) (AU) (AG) (AU) (AU) (AG) (AG)
                 (AU) (AU) (AG) (AG) (AU) (AG) (AU) (AU) (AU) (AG)
                 (AG) (AU) (AG) (AU) (AG) (AG) (AU) (AG) (AU) (AU)
                 (AG) (AU) (AG) (AU) (AU) (AG) (AU) (AG) (AG) (AU)
                 (AG) (AU) (AG) (AU) (AG) (AG) (AG) (AU) (AU) (AU)
                 (AG) (AG) (AU) (AG) (AG) (AU) (AG) (AU) (AG) (AU)
                 (AG) (AG) (AU) (AU) (AU) (AU) (AG) (AU) (AG) (AG)
                 (AG) (AU) (AG) (AU) (AU) (AU) (AG) (AU) (AG) (AU)
                 (AG) (AG) (AG) (AU) (AU) (AG) (AU) (AG) (AG) (AU)
                 (AG) (AU) (AG) (AU) (AU) (AU) (AG) (AG) (AU) (AG)
                 (AU) (AU) (AG) (AG) (AU) (AG) (AU) (AU) (AG) (AU)
                 (AG) (AU) (AG) (AU) (AG) (AU) (AG) (AU) (AG) (AU)
                 (AG) (AU) (AG) (AU) (AG) (AU) (AU) (AG) (AG) (AU)
                 (AG) (AU) (AU) (AG) (AU) (AG) (AG) (AU) (AG) (AU)
                 (AG) (AU) (AG) (AG) (AU) (AU) (AU) (AG) (AG) (AU)
                 (AG) (AU) (AG) (AU) (AU) (AG) (AU) (AG) (AG) (AG)
                 (AU) (AU) (AG) (AU) (AG) (AU) (AG) (AU) (AU) (AG)
                 (AG) (AG) (AU) (AU) (AG) (AU) (AG) (AG) (AU) (AU)
                 (AG) (AU) (AG) (AU) (AG) (AG) (AU) (AU) (AG) (AU)
                 (AG) (AU) (AG) (AU) (AG) (AU) (AG) (AG) (AU) (AG)
                 (AU) (AG) (AU) (AU) (AG) (AG) (AU) (AG) (AU) (AU)
                 (AG) (AG) (AU) (AU) (AG) (AG) (AU) (AU) (AG) (AU)
                 (AG) (AG) (AU) (AU) (AU) (AG) (AG) (AG) (AU) (AG)
                 (AU) (AG) (AU) (AU) (AG) (AU) (AG) (AU) (AG) (AG)
                 (AU) (AG) (AG) (AU) (AG) (AU) (AG) (AU) (AU) (AG)
                 (AG) (AU) (AG) (AU) (AU) (AG) (AG) (AU) (AG) (AU)
                 (AG) (AU) (AU) (AG) (AG) (AU) (AU) (AU) (AG) (AG)
                 (AU) (AG) (AU) (AG) (AU) (AG) (AU) (AG) (AG) (AU)
                 (AU) (AG) (AU) (AU) (AG) (AG) (AU) (AG) (AU) (AG)
                 (AU) (AU) (AG) (AG) (AU) (AU) (AG) (AG) (AU) (AG)
                 (AU) (AG) (AG) (AU) (AG) (AU) (AU) (AG) (AU) (AG)
                 (AU) (AG) (AU) (AG) (AU) (AG) (AU) (AG) (AU) (AG)
                 (AU) (AG) (AU) (AG) (AU) (AG) (AG) (AU) (AU) (AG)
                 (AU) (AG) (AU) (AU) (AG) (AU) (AG) (AG) (AU) (AU)
                 (AG) (AU) (AG) (AU) (AG) (AU) (AG) (AG) (AU) (AG)
                 (AU) (AG) (AU) (AU) (AG) (AG) (AU) (AU) (AG) (AG)
                 (AU) (AU) (AG) (AU) (AG) (AU) (AG)
 The electronic state is 1-AG.
 Alpha  occ. eigenvalues --  -19.12573 -19.12573 -14.36146 -14.36145 -10.27592
 Alpha  occ. eigenvalues --  -10.27591 -10.24390 -10.24314 -10.23745 -10.23744
 Alpha  occ. eigenvalues --  -10.19990 -10.19990 -10.19876 -10.19876 -10.19556
 Alpha  occ. eigenvalues --  -10.19556 -10.19080 -10.19080 -10.18795 -10.18795
 Alpha  occ. eigenvalues --   -1.06079  -1.05854  -0.98034  -0.97005  -0.87298
 Alpha  occ. eigenvalues --   -0.86751  -0.79575  -0.78815  -0.78106  -0.75841
 Alpha  occ. eigenvalues --   -0.74800  -0.70988  -0.66849  -0.62810  -0.61746
 Alpha  occ. eigenvalues --   -0.60623  -0.58011  -0.56963  -0.54003  -0.53842
 Alpha  occ. eigenvalues --   -0.51736  -0.51167  -0.48467  -0.47538  -0.46808
 Alpha  occ. eigenvalues --   -0.46538  -0.45804  -0.45450  -0.44791  -0.44428
 Alpha  occ. eigenvalues --   -0.44297  -0.43686  -0.43415  -0.39132  -0.39068
 Alpha  occ. eigenvalues --   -0.38598  -0.38409  -0.37437  -0.37197  -0.36599
 Alpha  occ. eigenvalues --   -0.34923  -0.28584  -0.28444  -0.27973  -0.27735
 Alpha  occ. eigenvalues --   -0.26622  -0.24620  -0.21956
 Alpha virt. eigenvalues --   -0.11587  -0.06017  -0.02619  -0.01892  -0.00726
 Alpha virt. eigenvalues --   -0.00349   0.00027   0.01059   0.01201   0.02132
 Alpha virt. eigenvalues --    0.02810   0.03208   0.03606   0.04013   0.04369
 Alpha virt. eigenvalues --    0.04791   0.04949   0.05422   0.06040   0.06664
 Alpha virt. eigenvalues --    0.07010   0.07647   0.07848   0.08290   0.08668
 Alpha virt. eigenvalues --    0.08957   0.09945   0.10297   0.10747   0.11301
 Alpha virt. eigenvalues --    0.11459   0.11974   0.12139   0.12589   0.12826
 Alpha virt. eigenvalues --    0.12920   0.13765   0.13990   0.14128   0.14452
 Alpha virt. eigenvalues --    0.14535   0.15009   0.15445   0.15471   0.16025
 Alpha virt. eigenvalues --    0.16163   0.16369   0.17541   0.17929   0.18172
 Alpha virt. eigenvalues --    0.18421   0.18806   0.19209   0.19287   0.19626
 Alpha virt. eigenvalues --    0.19932   0.20185   0.20404   0.20600   0.20622
 Alpha virt. eigenvalues --    0.20838   0.20878   0.21358   0.21547   0.22516
 Alpha virt. eigenvalues --    0.22603   0.22747   0.22843   0.23298   0.24204
 Alpha virt. eigenvalues --    0.24333   0.24497   0.24524   0.24799   0.24869
 Alpha virt. eigenvalues --    0.25303   0.26480   0.26741   0.26979   0.27347
 Alpha virt. eigenvalues --    0.27987   0.28360   0.28494   0.28725   0.29324
 Alpha virt. eigenvalues --    0.29590   0.29919   0.31626   0.31652   0.31913
 Alpha virt. eigenvalues --    0.32010   0.32813   0.33087   0.33105   0.33432
 Alpha virt. eigenvalues --    0.33770   0.34204   0.34354   0.35520   0.36058
 Alpha virt. eigenvalues --    0.37182   0.37978   0.38612   0.38893   0.39621
 Alpha virt. eigenvalues --    0.40329   0.40354   0.41478   0.44603   0.45012
 Alpha virt. eigenvalues --    0.46224   0.47387   0.47593   0.47881   0.48226
 Alpha virt. eigenvalues --    0.49393   0.50035   0.50294   0.50707   0.51248
 Alpha virt. eigenvalues --    0.51781   0.52198   0.52558   0.52844   0.53742
 Alpha virt. eigenvalues --    0.54324   0.54633   0.55015   0.56090   0.56580
 Alpha virt. eigenvalues --    0.57435   0.57980   0.59484   0.59608   0.60069
 Alpha virt. eigenvalues --    0.60528   0.60695   0.61370   0.61707   0.61755
 Alpha virt. eigenvalues --    0.62001   0.62418   0.62951   0.63226   0.63687
 Alpha virt. eigenvalues --    0.64184   0.64351   0.64706   0.64962   0.66835
 Alpha virt. eigenvalues --    0.67461   0.67685   0.67771   0.68431   0.68604
 Alpha virt. eigenvalues --    0.69537   0.70137   0.70853   0.71182   0.71216
 Alpha virt. eigenvalues --    0.71483   0.72531   0.73559   0.74735   0.74914
 Alpha virt. eigenvalues --    0.75802   0.75910   0.76689   0.77033   0.77060
 Alpha virt. eigenvalues --    0.77910   0.78136   0.78149   0.79150   0.79406
 Alpha virt. eigenvalues --    0.79950   0.80116   0.80775   0.81080   0.81757
 Alpha virt. eigenvalues --    0.82602   0.83051   0.83090   0.83375   0.83782
 Alpha virt. eigenvalues --    0.84627   0.85268   0.85842   0.86649   0.87144
 Alpha virt. eigenvalues --    0.87900   0.88489   0.88495   0.89482   0.90614
 Alpha virt. eigenvalues --    0.90642   0.92035   0.92534   0.94289   0.95123
 Alpha virt. eigenvalues --    0.97031   0.98350   1.00983   1.01314   1.02730
 Alpha virt. eigenvalues --    1.03622   1.04455   1.04484   1.06998   1.07578
 Alpha virt. eigenvalues --    1.07710   1.07753   1.11341   1.11364   1.12384
 Alpha virt. eigenvalues --    1.12894   1.13733   1.14912   1.15337   1.15986
 Alpha virt. eigenvalues --    1.16604   1.16794   1.17242   1.18826   1.19123
 Alpha virt. eigenvalues --    1.19547   1.19885   1.20395   1.20405   1.20794
 Alpha virt. eigenvalues --    1.22063   1.24046   1.25176   1.25316   1.27864
 Alpha virt. eigenvalues --    1.28115   1.28202   1.28463   1.29206   1.30620
 Alpha virt. eigenvalues --    1.30884   1.31920   1.32357   1.32375   1.32613
 Alpha virt. eigenvalues --    1.33646   1.34842   1.34947   1.37292   1.38191
 Alpha virt. eigenvalues --    1.39225   1.39301   1.40055   1.40490   1.40867
 Alpha virt. eigenvalues --    1.42319   1.45232   1.47109   1.47653   1.49470
 Alpha virt. eigenvalues --    1.49917   1.50850   1.51325   1.53472   1.54270
 Alpha virt. eigenvalues --    1.54887   1.55046   1.56294   1.57636   1.58247
 Alpha virt. eigenvalues --    1.60524   1.60935   1.61060   1.62951   1.66499
 Alpha virt. eigenvalues --    1.67988   1.68312   1.69443   1.71441   1.72107
 Alpha virt. eigenvalues --    1.72475   1.74301   1.75300   1.76326   1.76796
 Alpha virt. eigenvalues --    1.79234   1.81179   1.84705   1.85630   1.86743
 Alpha virt. eigenvalues --    1.86832   1.89033   1.92702   1.93126   1.93154
 Alpha virt. eigenvalues --    1.93173   1.94543   1.95095   1.96614   1.98459
 Alpha virt. eigenvalues --    1.99143   2.02195   2.03294   2.08955   2.09097
 Alpha virt. eigenvalues --    2.11385   2.12524   2.13121   2.14764   2.16635
 Alpha virt. eigenvalues --    2.19957   2.22280   2.25244   2.25439   2.26616
 Alpha virt. eigenvalues --    2.30042   2.32903   2.33248   2.35046   2.44640
 Alpha virt. eigenvalues --    2.47232   2.52702   2.56353   2.58260   2.59356
 Alpha virt. eigenvalues --    2.62231   2.62478   2.63502   2.64017   2.64093
 Alpha virt. eigenvalues --    2.64617   2.66009   2.66290   2.67843   2.68825
 Alpha virt. eigenvalues --    2.69228   2.71070   2.73146   2.73687   2.74591
 Alpha virt. eigenvalues --    2.74671   2.75553   2.76939   2.77573   2.80527
 Alpha virt. eigenvalues --    2.81740   2.81845   2.82666   2.82765   2.83693
 Alpha virt. eigenvalues --    2.88031   2.90027   2.90546   2.91387   2.92799
 Alpha virt. eigenvalues --    2.92833   2.95774   2.99680   3.00769   3.03480
 Alpha virt. eigenvalues --    3.04200   3.07729   3.08327   3.10335   3.10391
 Alpha virt. eigenvalues --    3.11929   3.12642   3.14490   3.15048   3.15393
 Alpha virt. eigenvalues --    3.15720   3.18070   3.19420   3.22055   3.23350
 Alpha virt. eigenvalues --    3.23787   3.25618   3.26263   3.28038   3.28120
 Alpha virt. eigenvalues --    3.28252   3.29334   3.30069   3.31750   3.32677
 Alpha virt. eigenvalues --    3.33123   3.33507   3.33849   3.35726   3.38444
 Alpha virt. eigenvalues --    3.39051   3.40108   3.40339   3.41586   3.41846
 Alpha virt. eigenvalues --    3.42497   3.42832   3.44707   3.44817   3.47665
 Alpha virt. eigenvalues --    3.48327   3.48684   3.49377   3.49787   3.50416
 Alpha virt. eigenvalues --    3.50898   3.51770   3.54480   3.56597   3.56954
 Alpha virt. eigenvalues --    3.57371   3.57522   3.58847   3.59045   3.59669
 Alpha virt. eigenvalues --    3.60268   3.60735   3.60955   3.61621   3.63562
 Alpha virt. eigenvalues --    3.63602   3.65320   3.66633   3.68794   3.70395
 Alpha virt. eigenvalues --    3.70538   3.72407   3.73255   3.74097   3.75160
 Alpha virt. eigenvalues --    3.75322   3.77253   3.77475   3.77825   3.78313
 Alpha virt. eigenvalues --    3.78740   3.81705   3.81847   3.85227   3.85359
 Alpha virt. eigenvalues --    3.86172   3.89385   3.89838   3.90959   3.92193
 Alpha virt. eigenvalues --    3.93142   3.93153   3.95656   3.96588   3.98840
 Alpha virt. eigenvalues --    3.99377   4.02549   4.02786   4.05671   4.07949
 Alpha virt. eigenvalues --    4.08911   4.11175   4.11536   4.11905   4.18577
 Alpha virt. eigenvalues --    4.20835   4.23587   4.25664   4.30986   4.38891
 Alpha virt. eigenvalues --    4.43968   4.50511   4.53600   4.59643   4.59972
 Alpha virt. eigenvalues --    4.72123   4.75747   4.76197   4.87160   4.96595
 Alpha virt. eigenvalues --    5.06479   5.07078   5.07803   5.08626   5.09964
 Alpha virt. eigenvalues --    5.12240   5.13204   5.14047   5.19060   5.20641
 Alpha virt. eigenvalues --    5.25925   5.27524   5.27944   5.30384   5.36629
 Alpha virt. eigenvalues --    5.37098   5.42335   5.46995   5.52394   5.54837
 Alpha virt. eigenvalues --    6.13002   6.13375   6.81036   6.81807   6.87304
 Alpha virt. eigenvalues --    6.89209   7.05898   7.09115   7.25812   7.26345
 Alpha virt. eigenvalues --    7.30914   7.32161  23.60126  23.70699  23.89355
 Alpha virt. eigenvalues --   23.97716  24.00504  24.02270  24.02918  24.03515
 Alpha virt. eigenvalues --   24.05192  24.11827  24.16885  24.17738  24.20208
 Alpha virt. eigenvalues --   24.21672  24.25671  24.29715  35.71106  35.79615
 Alpha virt. eigenvalues --   50.10628  50.11441
          Condensed to atoms (all electrons):
               1          2          3          4          5          6
     1  C    6.058313   0.023088  -1.269729  -0.234228  -0.005101  -0.057835
     2  C    0.023088   8.444361  -0.166823  -1.082107  -0.066968  -0.571572
     3  C   -1.269729  -0.166823   8.454446   1.181989   0.035183   0.151416
     4  C   -0.234228  -1.082107   1.181989   7.578347  -0.339455   0.035183
     5  C   -0.005101  -0.066968   0.035183  -0.339455   7.578347   1.181989
     6  C   -0.057835  -0.571572   0.151416   0.035183   1.181989   8.454446
     7  C    0.007093   0.064415  -0.571572  -0.066968  -1.082107  -0.166823
     8  C    0.003894   0.007093  -0.057835  -0.005101  -0.234228  -1.269729
     9  C   -0.000471  -0.003122  -0.012625  -0.028244  -0.091893  -0.074761
    10  C    0.000795   0.002438   0.006308  -0.005160  -0.082518  -0.162998
    11  C    0.000258   0.014103   0.015963   0.067497  -0.226028  -0.710182
    12  C    0.069005   0.187740  -0.249852  -0.101918  -0.714159  -0.812946
    13  N    0.014560   0.000884  -0.055494  -0.018118   0.194539  -0.028088
    14  H    0.003700   0.009367  -0.001552  -0.007169  -0.039068   0.036297
    15  H    0.000010  -0.000003  -0.000417   0.001814   0.007135  -0.001712
    16  H   -0.000000   0.000000  -0.000001  -0.000020  -0.000273   0.001605
    17  H   -0.000000   0.000000  -0.000001   0.000053  -0.000303   0.002625
    18  H   -0.000002   0.000024   0.000065   0.001496   0.006273   0.007372
    19  O    0.003171   0.001163  -0.050775  -0.172324   0.031210   0.192842
    20  N   -0.044445   0.086416  -0.028088   0.194539  -0.018118  -0.055494
    21  C    0.441767  -2.173035  -0.812946  -0.714159  -0.101918  -0.249852
    22  C    0.319428   0.624485  -0.710182  -0.226028   0.067497   0.015963
    23  C    0.237169  -0.695274  -0.162998  -0.082518  -0.005160   0.006308
    24  C    0.351455   0.197320  -0.074761  -0.091893  -0.028244  -0.012625
    25  H   -0.042797   0.008213   0.002625  -0.000303   0.000053  -0.000001
    26  H    0.009510   0.013307   0.001605  -0.000273  -0.000020  -0.000001
    27  H    0.001485   0.006465  -0.001712   0.007135   0.001814  -0.000417
    28  H   -0.008898  -0.000148   0.036297  -0.039068  -0.007169  -0.001552
    29  O    0.023260   0.057953   0.192842   0.031210  -0.172324  -0.050775
    30  H    0.385466  -0.019628   0.007372   0.006273   0.001496   0.000065
               7          8          9         10         11         12
     1  C    0.007093   0.003894  -0.000471   0.000795   0.000258   0.069005
     2  C    0.064415   0.007093  -0.003122   0.002438   0.014103   0.187740
     3  C   -0.571572  -0.057835  -0.012625   0.006308   0.015963  -0.249852
     4  C   -0.066968  -0.005101  -0.028244  -0.005160   0.067497  -0.101918
     5  C   -1.082107  -0.234228  -0.091893  -0.082518  -0.226028  -0.714159
     6  C   -0.166823  -1.269729  -0.074761  -0.162998  -0.710182  -0.812946
     7  C    8.444361   0.023088   0.197320  -0.695274   0.624485  -2.173035
     8  C    0.023088   6.058313   0.351455   0.237169   0.319428   0.441767
     9  C    0.197320   0.351455   5.468952   0.332235  -0.033286  -0.444602
    10  C   -0.695274   0.237169   0.332235   5.234549   0.426728   0.510357
    11  C    0.624485   0.319428  -0.033286   0.426728   6.298851  -0.725156
    12  C   -2.173035   0.441767  -0.444602   0.510357  -0.725156  10.160425
    13  N    0.086416  -0.044445   0.014341  -0.033060  -0.106069   0.099701
    14  H   -0.000148  -0.008898  -0.001603  -0.004810  -0.063443   0.034940
    15  H    0.006465   0.001485   0.017610  -0.037203   0.403614  -0.057963
    16  H    0.013307   0.009510  -0.055349   0.409667  -0.038826  -0.004081
    17  H    0.008213  -0.042797   0.423766  -0.069626   0.018749  -0.004011
    18  H   -0.019628   0.385466  -0.077009   0.013222  -0.004734   0.021520
    19  O    0.057953   0.023260   0.001800  -0.007977   0.014992  -0.071694
    20  N    0.000884   0.014560  -0.000125   0.001482   0.004158   0.025873
    21  C    0.187740   0.069005  -0.000463   0.002858   0.007542   0.178025
    22  C    0.014103   0.000258   0.000012   0.000110  -0.000395   0.007542
    23  C    0.002438   0.000795   0.000013   0.000013   0.000110   0.002858
    24  C   -0.003122  -0.000471  -0.000039   0.000013   0.000012  -0.000463
    25  H    0.000000  -0.000000   0.000000  -0.000000  -0.000000  -0.000003
    26  H    0.000000  -0.000000  -0.000000  -0.000000   0.000000  -0.000002
    27  H   -0.000003   0.000010   0.000000  -0.000000  -0.000001  -0.000011
    28  H    0.009367   0.003700   0.000206  -0.000042   0.000617   0.000306
    29  O    0.001163   0.003171  -0.000035   0.001639   0.008955   0.079547
    30  H    0.000024  -0.000002   0.000000  -0.000001  -0.000008  -0.000116
              13         14         15         16         17         18
     1  C    0.014560   0.003700   0.000010  -0.000000  -0.000000  -0.000002
     2  C    0.000884   0.009367  -0.000003   0.000000   0.000000   0.000024
     3  C   -0.055494  -0.001552  -0.000417  -0.000001  -0.000001   0.000065
     4  C   -0.018118  -0.007169   0.001814  -0.000020   0.000053   0.001496
     5  C    0.194539  -0.039068   0.007135  -0.000273  -0.000303   0.006273
     6  C   -0.028088   0.036297  -0.001712   0.001605   0.002625   0.007372
     7  C    0.086416  -0.000148   0.006465   0.013307   0.008213  -0.019628
     8  C   -0.044445  -0.008898   0.001485   0.009510  -0.042797   0.385466
     9  C    0.014341  -0.001603   0.017610  -0.055349   0.423766  -0.077009
    10  C   -0.033060  -0.004810  -0.037203   0.409667  -0.069626   0.013222
    11  C   -0.106069  -0.063443   0.403614  -0.038826   0.018749  -0.004734
    12  C    0.099701   0.034940  -0.057963  -0.004081  -0.004011   0.021520
    13  N    6.739461   0.343152  -0.002058  -0.000128   0.000430  -0.000827
    14  H    0.343152   0.440381   0.003724  -0.000008  -0.000003   0.000037
    15  H   -0.002058   0.003724   0.568789  -0.005959  -0.000363   0.000098
    16  H   -0.000128  -0.000008  -0.005959   0.580367  -0.006074  -0.000346
    17  H    0.000430  -0.000003  -0.000363  -0.006074   0.583713  -0.005374
    18  H   -0.000827   0.000037   0.000098  -0.000346  -0.005374   0.549418
    19  O    0.015789  -0.000510  -0.000014   0.000004   0.000107   0.007156
    20  N    0.023291  -0.002626   0.000011  -0.000000  -0.000001  -0.000099
    21  C    0.025873   0.000306  -0.000011  -0.000002  -0.000003  -0.000116
    22  C    0.004158   0.000617  -0.000001   0.000000  -0.000000  -0.000008
    23  C    0.001482  -0.000042  -0.000000  -0.000000  -0.000000  -0.000001
    24  C   -0.000125   0.000206   0.000000  -0.000000   0.000000   0.000000
    25  H   -0.000001   0.000000   0.000000  -0.000000   0.000000   0.000000
    26  H   -0.000000   0.000000   0.000000   0.000000  -0.000000  -0.000000
    27  H    0.000011  -0.000000   0.000000   0.000000   0.000000   0.000000
    28  H   -0.002626  -0.000122  -0.000000   0.000000   0.000000  -0.000001
    29  O    0.036788   0.007758  -0.000032   0.000000  -0.000000  -0.000000
    30  H   -0.000099  -0.000001   0.000000  -0.000000   0.000000   0.000000
              19         20         21         22         23         24
     1  C    0.003171  -0.044445   0.441767   0.319428   0.237169   0.351455
     2  C    0.001163   0.086416  -2.173035   0.624485  -0.695274   0.197320
     3  C   -0.050775  -0.028088  -0.812946  -0.710182  -0.162998  -0.074761
     4  C   -0.172324   0.194539  -0.714159  -0.226028  -0.082518  -0.091893
     5  C    0.031210  -0.018118  -0.101918   0.067497  -0.005160  -0.028244
     6  C    0.192842  -0.055494  -0.249852   0.015963   0.006308  -0.012625
     7  C    0.057953   0.000884   0.187740   0.014103   0.002438  -0.003122
     8  C    0.023260   0.014560   0.069005   0.000258   0.000795  -0.000471
     9  C    0.001800  -0.000125  -0.000463   0.000012   0.000013  -0.000039
    10  C   -0.007977   0.001482   0.002858   0.000110   0.000013   0.000013
    11  C    0.014992   0.004158   0.007542  -0.000395   0.000110   0.000012
    12  C   -0.071694   0.025873   0.178025   0.007542   0.002858  -0.000463
    13  N    0.015789   0.023291   0.025873   0.004158   0.001482  -0.000125
    14  H   -0.000510  -0.002626   0.000306   0.000617  -0.000042   0.000206
    15  H   -0.000014   0.000011  -0.000011  -0.000001  -0.000000   0.000000
    16  H    0.000004  -0.000000  -0.000002   0.000000  -0.000000  -0.000000
    17  H    0.000107  -0.000001  -0.000003  -0.000000  -0.000000   0.000000
    18  H    0.007156  -0.000099  -0.000116  -0.000008  -0.000001   0.000000
    19  O    8.305250   0.036788   0.079547   0.008955   0.001639  -0.000035
    20  N    0.036788   6.739461   0.099701  -0.106069  -0.033060   0.014341
    21  C    0.079547   0.099701  10.160425  -0.725156   0.510357  -0.444602
    22  C    0.008955  -0.106069  -0.725156   6.298851   0.426728  -0.033286
    23  C    0.001639  -0.033060   0.510357   0.426728   5.234549   0.332235
    24  C   -0.000035   0.014341  -0.444602  -0.033286   0.332235   5.468952
    25  H   -0.000000   0.000430  -0.004011   0.018749  -0.069626   0.423766
    26  H    0.000000  -0.000128  -0.004081  -0.038826   0.409667  -0.055349
    27  H   -0.000032  -0.002058  -0.057963   0.403614  -0.037203   0.017610
    28  H    0.007758   0.343152   0.034940  -0.063443  -0.004810  -0.001603
    29  O    0.000401   0.015789  -0.071694   0.014992  -0.007977   0.001800
    30  H   -0.000000  -0.000827   0.021520  -0.004734   0.013222  -0.077009
              25         26         27         28         29         30
     1  C   -0.042797   0.009510   0.001485  -0.008898   0.023260   0.385466
     2  C    0.008213   0.013307   0.006465  -0.000148   0.057953  -0.019628
     3  C    0.002625   0.001605  -0.001712   0.036297   0.192842   0.007372
     4  C   -0.000303  -0.000273   0.007135  -0.039068   0.031210   0.006273
     5  C    0.000053  -0.000020   0.001814  -0.007169  -0.172324   0.001496
     6  C   -0.000001  -0.000001  -0.000417  -0.001552  -0.050775   0.000065
     7  C    0.000000   0.000000  -0.000003   0.009367   0.001163   0.000024
     8  C   -0.000000  -0.000000   0.000010   0.003700   0.003171  -0.000002
     9  C    0.000000  -0.000000   0.000000   0.000206  -0.000035   0.000000
    10  C   -0.000000  -0.000000  -0.000000  -0.000042   0.001639  -0.000001
    11  C   -0.000000   0.000000  -0.000001   0.000617   0.008955  -0.000008
    12  C   -0.000003  -0.000002  -0.000011   0.000306   0.079547  -0.000116
    13  N   -0.000001  -0.000000   0.000011  -0.002626   0.036788  -0.000099
    14  H    0.000000   0.000000  -0.000000  -0.000122   0.007758  -0.000001
    15  H    0.000000   0.000000   0.000000  -0.000000  -0.000032   0.000000
    16  H   -0.000000   0.000000   0.000000   0.000000   0.000000  -0.000000
    17  H    0.000000  -0.000000   0.000000   0.000000  -0.000000   0.000000
    18  H    0.000000  -0.000000   0.000000  -0.000001  -0.000000   0.000000
    19  O   -0.000000   0.000000  -0.000032   0.007758   0.000401  -0.000000
    20  N    0.000430  -0.000128  -0.002058   0.343152   0.015789  -0.000827
    21  C   -0.004011  -0.004081  -0.057963   0.034940  -0.071694   0.021520
    22  C    0.018749  -0.038826   0.403614  -0.063443   0.014992  -0.004734
    23  C   -0.069626   0.409667  -0.037203  -0.004810  -0.007977   0.013222
    24  C    0.423766  -0.055349   0.017610  -0.001603   0.001800  -0.077009
    25  H    0.583713  -0.006074  -0.000363  -0.000003   0.000107  -0.005374
    26  H   -0.006074   0.580367  -0.005959  -0.000008   0.000004  -0.000346
    27  H   -0.000363  -0.005959   0.568789   0.003724  -0.000014   0.000098
    28  H   -0.000003  -0.000008   0.003724   0.440381  -0.000510   0.000037
    29  O    0.000107   0.000004  -0.000014  -0.000510   8.305250   0.007156
    30  H   -0.005374  -0.000346   0.000098   0.000037   0.007156   0.549418
 Mulliken charges:
               1
     1  C   -0.289922
     2  C    1.029842
     3  C    0.141252
     4  C    0.109518
     5  C    0.109518
     6  C    0.141252
     7  C    1.029842
     8  C   -0.289922
     9  C    0.015916
    10  C   -0.080913
    11  C   -0.317934
    12  C   -0.459595
    13  N   -0.309738
    14  H    0.249517
    15  H    0.094980
    16  H    0.096606
    17  H    0.090899
    18  H    0.115997
    19  O   -0.486427
    20  N   -0.309738
    21  C   -0.459595
    22  C   -0.317934
    23  C   -0.080913
    24  C    0.015916
    25  H    0.090899
    26  H    0.096606
    27  H    0.094980
    28  H    0.249517
    29  O   -0.486427
    30  H    0.115997
 Sum of Mulliken charges =  -0.00000
 Mulliken charges with hydrogens summed into heavy atoms:
               1
     1  C   -0.173925
     2  C    1.029842
     3  C    0.141252
     4  C    0.109518
     5  C    0.109518
     6  C    0.141252
     7  C    1.029842
     8  C   -0.173925
     9  C    0.106815
    10  C    0.015694
    11  C   -0.222954
    12  C   -0.459595
    13  N   -0.060221
    19  O   -0.486427
    20  N   -0.060221
    21  C   -0.459595
    22  C   -0.222954
    23  C    0.015694
    24  C    0.106815
    29  O   -0.486427
 Electronic spatial extent (au):  <R**2>=           6797.8797
 Charge=             -0.0000 electrons
 Dipole moment (field-independent basis, Debye):
    X=             -0.0000    Y=             -0.0000    Z=             -0.0000  Tot=              0.0000
 Quadrupole moment (field-independent basis, Debye-Ang):
   XX=           -102.5522   YY=           -119.4374   ZZ=            -99.3450
   XY=              2.5196   XZ=             18.4525   YZ=              0.4784
 Traceless Quadrupole moment (field-independent basis, Debye-Ang):
   XX=              4.5593   YY=            -12.3259   ZZ=              7.7666
   XY=              2.5196   XZ=             18.4525   YZ=              0.4784
 Octapole moment (field-independent basis, Debye-Ang**2):
  XXX=              0.0000  YYY=              0.0000  ZZZ=              0.0000  XYY=             -0.0000
  XXY=              0.0000  XXZ=              0.0000  XZZ=              0.0000  YZZ=             -0.0000
  YYZ=             -0.0000  XYZ=             -0.0000
 Hexadecapole moment (field-independent basis, Debye-Ang**3):
 XXXX=          -2343.7398 YYYY=           -144.3514 ZZZZ=          -5878.9182 XXXY=             48.9652
 XXXZ=          -1139.8305 YYYX=             42.8090 YYYZ=            103.9431 ZZZX=          -1103.3565
 ZZZY=             85.6002 XXYY=           -516.9057 XXZZ=          -1396.6915 YYZZ=          -1255.4800
 XXYZ=             34.1926 YYXZ=           -530.0840 ZZXY=              3.3736
 N-N= 1.368414998274D+03 E-N=-4.776962902006D+03  KE= 8.720199327459D+02
 Symmetry AG   KE= 4.365925818332D+02
 Symmetry AU   KE= 4.354273509127D+02
 1\1\GINC-COMPCHEM0\SP\RB3LYP TD-FC\6-311+G(2d,p)\C16H10N2O2\APACHE\08-
 Jan-2019\0\\#N TD(NStates=10) B3LYP/6-311+G(2d,p) Geom=Connectivity\\C
 16H10O2N2\\0,1\C\C,1,1.383977217\C,2,1.483739476,1,130.9894604\C,3,1.5
 08680348,2,104.8831623,1,-177.5486212,0\C,4,1.350914917,3,128.1258987,
 2,175.9849589,0\C,5,1.508680348,4,128.1258987,3,180.,0\C,6,1.483739476
 ,5,104.8831623,4,-175.9849589,0\C,7,1.383977217,6,130.9894604,5,177.54
 86212,0\C,8,1.396094422,7,118.1686944,6,-179.3205652,0\C,9,1.392633526
 ,8,121.0057657,7,0.04609462,0\C,10,1.395189339,9,121.4233678,8,-0.2082
 599,0\C,11,1.389000597,10,117.4349546,9,-0.06345965,0\N,5,1.443381007,
 4,123.9319093,3,-4.24182045,0\H,13,0.993133442,5,117.952477,4,37.85134
 693,0\H,11,1.094791483,12,121.5662074,13,4.38110478,0\H,10,1.095633381
 ,11,119.1402749,12,179.8786416,0\H,9,1.095108522,8,119.4348207,7,179.9
 752987,0\H,8,1.095196951,7,120.6530023,6,0.5553759,0\O,6,1.212112704,5
 ,127.1374458,4,4.68786853,0\N,4,1.443381007,5,123.9319093,6,4.24182045
 ,0\C,20,1.436855138,4,107.373362,5,-173.1745647,0\C,21,1.389000597,20,
 128.0546731,4,174.4073048,0\C,22,1.395189339,21,117.4349546,20,175.553
 5567,0\C,1,1.396094422,2,118.1686944,3,179.3205652,0\H,24,1.095108522,
 1,119.4348207,2,-179.9752987,0\H,23,1.095633381,22,119.1402749,21,-179
 .8786416,0\H,22,1.094791483,21,121.5662074,20,-4.38110478,0\H,20,0.993
 133442,4,117.952477,5,-37.85134693,0\O,3,1.212112704,4,127.1374458,5,-
 4.68786853,0\H,1,1.095196951,2,120.6530023,3,-0.5553759,0\\Version=ES6
 4L-G16RevA.03\State=1-AG\HF=-875.933873\RMSD=2.690e-09\PG=CI [X(C16H10
 N2O2)]\\@


 EVERYBODY NEEDS BEAUTY AS WELL AS BREAD, PLACES TO PLAY IN AND PRAY IN,
 WHERE NATURE MAY HEAL AND CHEER AND GIVE STRENGTH TO BODY AND SOUL ALIKE.

                                    -- JOHN MUIR
 Job cpu time:       0 days  3 hours 11 minutes  3.6 seconds.
 Elapsed time:       0 days  1 hours 11 minutes 55.0 seconds.
 File lengths (MBytes):  RWF=   1679 Int=      0 D2E=      0 Chk=    125 Scr=      1
 Normal termination of Gaussian 16 at Tue Jan  8 19:47:43 2019.


