

 Entering Gaussian System, Link 0=/usr/local/bin/webmo/g16/g16
 Initial command:
 /usr/local/bin/webmo/g16/l1.exe "/tmp/webmo-12180/7688/Gau-72496.inp" -scrdir="/tmp/webmo-12180/7688/"
 Entering Link 1 = /usr/local/bin/webmo/g16/l1.exe PID=     72497.
  
 Copyright (c) 1988,1990,1992,1993,1995,1998,2003,2009,2016,
            Gaussian, Inc.  All Rights Reserved.
  
 This is part of the Gaussian(R) 16 program.  It is based on
 the Gaussian(R) 09 system (copyright 2009, Gaussian, Inc.),
 the Gaussian(R) 03 system (copyright 2003, Gaussian, Inc.),
 the Gaussian(R) 98 system (copyright 1998, Gaussian, Inc.),
 the Gaussian(R) 94 system (copyright 1995, Gaussian, Inc.),
 the Gaussian 92(TM) system (copyright 1992, Gaussian, Inc.),
 the Gaussian 90(TM) system (copyright 1990, Gaussian, Inc.),
 the Gaussian 88(TM) system (copyright 1988, Gaussian, Inc.),
 the Gaussian 86(TM) system (copyright 1986, Carnegie Mellon
 University), and the Gaussian 82(TM) system (copyright 1983,
 Carnegie Mellon University). Gaussian is a federally registered
 trademark of Gaussian, Inc.
  
 This software contains proprietary and confidential information,
 including trade secrets, belonging to Gaussian, Inc.
  
 This software is provided under written license and may be
 used, copied, transmitted, or stored only in accord with that
 written license.
  
 The following legend is applicable only to US Government
 contracts under FAR:
  
                    RESTRICTED RIGHTS LEGEND
  
 Use, reproduction and disclosure by the US Government is
 subject to restrictions as set forth in subparagraphs (a)
 and (c) of the Commercial Computer Software - Restricted
 Rights clause in FAR 52.227-19.
  
 Gaussian, Inc.
 340 Quinnipiac St., Bldg. 40, Wallingford CT 06492
  
  
 ---------------------------------------------------------------
 Warning -- This program may not be used in any manner that
 competes with the business of Gaussian, Inc. or will provide
 assistance to any competitor of Gaussian, Inc.  The licensee
 of this program is prohibited from giving any competitor of
 Gaussian, Inc. access to this program.  By using this program,
 the user acknowledges that Gaussian, Inc. is engaged in the
 business of creating and licensing software in the field of
 computational chemistry and represents and warrants to the
 licensee that it is not a competitor of Gaussian, Inc. and that
 it will not use this program in any manner prohibited above.
 ---------------------------------------------------------------
  

 Cite this work as:
 Gaussian 16, Revision A.03,
 M. J. Frisch, G. W. Trucks, H. B. Schlegel, G. E. Scuseria, 
 M. A. Robb, J. R. Cheeseman, G. Scalmani, V. Barone, 
 G. A. Petersson, H. Nakatsuji, X. Li, M. Caricato, A. V. Marenich, 
 J. Bloino, B. G. Janesko, R. Gomperts, B. Mennucci, H. P. Hratchian, 
 J. V. Ortiz, A. F. Izmaylov, J. L. Sonnenberg, D. Williams-Young, 
 F. Ding, F. Lipparini, F. Egidi, J. Goings, B. Peng, A. Petrone, 
 T. Henderson, D. Ranasinghe, V. G. Zakrzewski, J. Gao, N. Rega, 
 G. Zheng, W. Liang, M. Hada, M. Ehara, K. Toyota, R. Fukuda, 
 J. Hasegawa, M. Ishida, T. Nakajima, Y. Honda, O. Kitao, H. Nakai, 
 T. Vreven, K. Throssell, J. A. Montgomery, Jr., J. E. Peralta, 
 F. Ogliaro, M. J. Bearpark, J. J. Heyd, E. N. Brothers, K. N. Kudin, 
 V. N. Staroverov, T. A. Keith, R. Kobayashi, J. Normand, 
 K. Raghavachari, A. P. Rendell, J. C. Burant, S. S. Iyengar, 
 J. Tomasi, M. Cossi, J. M. Millam, M. Klene, C. Adamo, R. Cammi, 
 J. W. Ochterski, R. L. Martin, K. Morokuma, O. Farkas, 
 J. B. Foresman, and D. J. Fox, Gaussian, Inc., Wallingford CT, 2016.
 
 ******************************************
 Gaussian 16:  ES64L-G16RevA.03 25-Dec-2016
                 8-Jan-2019 
 ******************************************
 %NProcShared=4
 Will use up to    4 processors via shared memory.
 -------------------------------------------------------
 #N TD(NStates=10) B3LYP/6-311+G(2d,p) Geom=Connectivity
 -------------------------------------------------------
 1/38=1,57=2,172=1/1;
 2/12=2,17=6,18=5,40=1/2;
 3/5=4,6=6,7=112,11=9,25=1,30=1,74=-5/1,2,3,8;
 4//1;
 5/5=2,38=5/2;
 8/6=1,10=2,108=10/1;
 9/41=10,42=1,70=2/14;
 6/7=2,8=2,9=2,10=2/1;
 99/5=1,9=1/99;
 ----------------
 C18H14O8N2S2(-2)
 ----------------
 Symbolic Z-matrix:
 Charge = -2 Multiplicity = 1
 C
 C                    1    B1
 C                    2    B2       1    A1
 S                    3    B3       2    A2       1    D1       0
 O                    4    B4       3    A3       2    D2       0
 O                    4    B5       5    A4       3    D3       0
 O                    4    B6       5    A5       6    D4       0
 C                    3    B7       4    A6       5    D5       0
 C                    8    B8       3    A7       4    D6       0
 O                    9    B9       8    A8       3    D7       0
 C                    10   B10      9    A9       8    D8       0
 H                    11   B11      10   A10      9    D9       0
 H                    11   B12      10   A11      9    D10      0
 H                    11   B13      10   A12      9    D11      0
 C                    9    B14      10   A13      11   D12      0
 N                    15   B15      9    A14      10   D13      0
 N                    16   B16      15   A15      9    D14      0
 C                    17   B17      16   A16      15   D15      0
 C                    18   B18      17   A17      16   D16      0
 C                    19   B19      18   A18      17   D17      0
 C                    20   B20      19   A19      18   D18      0
 C                    21   B21      20   A20      19   D19      0
 S                    22   B22      21   A21      20   D20      0
 O                    23   B23      22   A22      21   D21      0
 O                    23   B24      24   A23      22   D22      0
 O                    23   B25      24   A24      25   D23      0
 C                    22   B26      23   A25      24   D24      0
 C                    19   B27      20   A26      21   D25      0
 H                    28   B28      19   A27      20   D26      0
 H                    27   B29      22   A28      23   D27      0
 H                    21   B30      20   A29      19   D28      0
 C                    20   B31      19   A30      18   D29      0
 C                    32   B32      20   A31      19   D30      0
 C                    18   B33      17   A32      16   D31      0
 O                    34   B34      18   A33      17   D32      0
 H                    33   B35      32   A34      20   D33      0
 H                    32   B36      20   A35      19   D34      0
 H                    16   B37      17   A36      18   D35      0
 C                    2    B38      3    A37      4    D36      0
 H                    39   B39      2    A38      3    D37      0
 H                    8    B40      3    A39      4    D38      0
 H                    1    B41      2    A40      3    D39      0
 H                    1    B42      2    A41      3    D40      0
 H                    1    B43      2    A42      3    D41      0
       Variables:
  B1                    1.48866                  
  B2                    1.40387                  
  B3                    1.88661                  
  B4                    1.50088                  
  B5                    1.50008                  
  B6                    1.50189                  
  B7                    1.3895                   
  B8                    1.40255                  
  B9                    1.39333                  
  B10                   1.41167                  
  B11                   1.09607                  
  B12                   1.10244                  
  B13                   1.09322                  
  B14                   1.40216                  
  B15                   1.45365                  
  B16                   1.33017                  
  B17                   1.33088                  
  B18                   1.46462                  
  B19                   1.40794                  
  B20                   1.4029                   
  B21                   1.38623                  
  B22                   1.86788                  
  B23                   1.5017                   
  B24                   1.50106                  
  B25                   1.50481                  
  B26                   1.39647                  
  B27                   1.4005                   
  B28                   1.10362                  
  B29                   1.09822                  
  B30                   1.09929                  
  B31                   1.44431                  
  B32                   1.34481                  
  B33                   1.47898                  
  B34                   1.23771                  
  B35                   1.09509                  
  B36                   1.09747                  
  B37                   1.01505                  
  B38                   1.39448                  
  B39                   1.09861                  
  B40                   1.10149                  
  B41                   1.09959                  
  B42                   1.09851                  
  B43                   1.09963                  
  A1                  121.34344                  
  A2                  123.49036                  
  A3                  104.84829                  
  A4                  113.63629                  
  A5                  113.71725                  
  A6                  118.47343                  
  A7                  121.89802                  
  A8                  119.01894                  
  A9                  114.05463                  
  A10                 112.93869                  
  A11                 111.39042                  
  A12                 102.89917                  
  A13                 120.98112                  
  A14                 123.35071                  
  A15                 118.09941                  
  A16                 123.29324                  
  A17                 117.93065                  
  A18                 119.1385                   
  A19                 119.99659                  
  A20                 121.42539                  
  A21                 120.43865                  
  A22                 104.47907                  
  A23                 113.86144                  
  A24                 113.38364                  
  A25                 121.50007                  
  A26                 118.50325                  
  A27                 120.13193                  
  A28                 118.72319                  
  A29                 119.49173                  
  A30                 120.45741                  
  A31                 122.22166                  
  A32                 122.78332                  
  A33                 121.13668                  
  A34                 121.37023                  
  A35                 117.25954                  
  A36                 115.83089                  
  A37                 120.69905                  
  A38                 118.9823                   
  A39                 119.02461                  
  A40                 110.66774                  
  A41                 112.43798                  
  A42                 110.6311                   
  D1                   -0.4449                   
  D2                   59.21046                  
  D3                 -114.30086                  
  D4                 -132.04248                  
  D5                 -121.51526                  
  D6                 -178.9945                   
  D7                  172.72266                  
  D8                   79.92322                  
  D9                  -45.06043                  
  D10                  79.0815                   
  D11                -163.6956                   
  D12                -106.34456                  
  D13                   3.85933                  
  D14                  53.93424                  
  D15                 163.30601                  
  D16                 173.42207                  
  D17                 176.44565                  
  D18                 179.38887                  
  D19                  -0.07861                  
  D20                -178.72167                  
  D21                  87.98267                  
  D22                -114.16228                  
  D23                -132.58914                  
  D24                 -91.1208                   
  D25                  -0.27277                  
  D26                -179.83722                  
  D27                  -1.72979                  
  D28                 179.44811                  
  D29                  -0.42361                  
  D30                   1.06                     
  D31                  -8.82466                  
  D32                   3.62164                  
  D33                 179.82311                  
  D34                -179.05515                  
  D35                  18.76647                  
  D36                 179.60376                  
  D37                -179.9378                   
  D38                   0.43449                  
  D39                  58.96775                  
  D40                 179.51435                  
  D41                 -59.95593                  
 
                          Input orientation:                          
 ---------------------------------------------------------------------
 Center     Atomic      Atomic             Coordinates (Angstroms)
 Number     Number       Type             X           Y           Z
 ---------------------------------------------------------------------
      1          6           0        0.000000    0.000000    0.000000
      2          6           0        0.000000    0.000000    1.488663
      3          6           0        1.199000    0.000000    2.218912
      4         16           0        2.906508   -0.012217    1.416679
      5          8           0        2.943840    1.228357    0.572742
      6          8           0        3.877487    0.008665    2.559920
      7          8           0        2.941741   -1.285476    0.620909
      8          6           0        1.118755   -0.005947    3.606080
      9          6           0       -0.112768   -0.018480    4.277149
     10          8           0       -0.126714   -0.178223    5.661219
     11          6           0        0.159484    1.002767    6.379663
     12          1           0        1.014328    1.554358    5.971797
     13          1           0       -0.720944    1.664075    6.433371
     14          1           0        0.396570    0.628939    7.379250
     15          6           0       -1.305668   -0.002129    3.540419
     16          7           0       -2.623195   -0.065276    4.151352
     17          7           0       -2.919903    0.824859    5.094212
     18          6           0       -4.163808    1.079306    5.493201
     19          6           0       -4.347479    1.972583    6.639246
     20          6           0       -5.653152    2.319303    7.035871
     21          6           0       -5.850238    3.163342    8.138995
     22          6           0       -4.781120    3.671370    8.860469
     23         16           0       -5.076119    4.764198   10.346294
     24          8           0       -5.207827    3.807194   11.496032
     25          8           0       -3.866590    5.649335   10.428508
     26          8           0       -6.351857    5.496918   10.029981
     27          6           0       -3.490704    3.326214    8.453262
     28          6           0       -3.268313    2.492683    7.364710
     29          1           0       -2.233498    2.240621    7.075583
     30          1           0       -2.635316    3.734000    9.008333
     31          1           0       -6.872946    3.436031    8.435874
     32          6           0       -6.796741    1.808451    6.316668
     33          6           0       -6.670941    0.976556    5.267557
     34          6           0       -5.353420    0.538934    4.800239
     35          8           0       -5.238916   -0.238185    3.843728
     36          1           0       -7.547950    0.595271    4.733994
     37          1           0       -7.789545    2.124993    6.661013
     38          1           0       -3.388002   -0.334089    3.540503
     39          6           0       -1.231740    0.001018    2.142420
     40          1           0       -2.152483   -0.000053    1.543108
     41          1           0        2.049437   -0.010262    4.195225
     42          1           0        0.530378   -0.881573   -0.388097
     43          1           0       -1.015310   -0.008606   -0.419283
     44          1           0        0.515241    0.890840   -0.387455
 ---------------------------------------------------------------------
                    Distance matrix (angstroms):
                    1          2          3          4          5
     1  C    0.000000
     2  C    1.488663   0.000000
     3  C    2.522137   1.403875   0.000000
     4  S    3.233407   2.907425   1.886614   0.000000
     5  O    3.240847   3.318730   2.695034   1.500882   0.000000
     6  O    4.646307   4.022757   2.700121   1.500078   2.511617
     7  O    3.269835   3.325551   2.691321   1.501892   2.514295
     8  C    3.775640   2.394807   1.389499   2.826584   3.749078
     9  C    4.278675   2.790826   2.440782   4.159129   4.961863
    10  O    5.665441   4.178282   3.693069   5.219590   6.107321
    11  C    6.459960   4.995284   4.404314   5.762599   6.443902
    12  H    6.253579   4.852151   4.066236   5.175287   5.742742
    13  H    6.684098   5.266786   4.921076   6.413701   6.925855
    14  H    7.416614   5.937326   5.260089   6.501009   7.292218
    15  C    3.773506   2.431970   2.831916   4.717288   5.327244
    16  N    4.911124   3.738359   4.283429   6.169188   6.743280
    17  N    5.929353   4.712346   5.090491   6.940606   7.415524
    18  C    6.976923   5.876948   6.375388   8.234004   8.645912
    19  C    8.177485   7.022832   7.361649   9.156144   9.514184
    20  C    9.318840   8.252806   8.691044  10.501385  10.810665
    21  C   10.510721   9.405260   9.733748  11.487136  11.761299
    22  C   10.716622   9.522688   9.661836  11.317175  11.590071
    23  S   12.470380  11.265975  11.319410  12.894748  13.127995
    24  O   13.182372  11.906453  11.899878  13.491616  13.871494
    25  O   12.474745  11.259943  11.179116  12.615113  12.769617
    26  O   13.082917  11.979829  12.175563  13.793363  13.930900
    27  C    9.731719   8.470794   8.480810  10.078836  10.387828
    28  C    8.434115   7.171002   7.256004   8.932078   9.290867
    29  H    7.750663   6.420480   6.355287   7.969827   8.373557
    30  H   10.101371   8.799606   8.645286  10.118259  10.419425
    31  H   11.410857  10.358930  10.752359  12.521870  12.769964
    32  C    9.453385   8.530874   9.164823  11.021696  11.322903
    33  C    8.555832   7.728852   8.496109  10.369882  10.702743
    34  C    7.210537   6.317918   7.063136   8.943078   9.337642
    35  O    6.502093   5.748852   6.644059   8.502327   8.933510
    36  H    8.929535   8.237601   9.120807  10.984959  11.304623
    37  H   10.467172   9.588838  10.248990  12.102738  12.372411
    38  H    4.911755   3.974949   4.785270   6.650947   7.165269
    39  C    2.471264   1.394483   2.431944   4.201425   4.626632
    40  H    2.648464   2.153171   3.418940   5.060585   5.331333
    41  H    4.669069   3.394962   2.151548   2.907730   3.931478
    42  H    1.099587   2.140257   2.832088   3.107892   3.346612
    43  H    1.098511   2.161293   3.444317   4.330292   4.264864
    44  H    1.099632   2.139834   2.838005   3.128669   2.633247
                    6          7          8          9         10
     6  O    0.000000
     7  O    2.512008   0.000000
     8  C    2.950469   3.724475   0.000000
     9  C    4.344163   4.929847   1.402547   0.000000
    10  O    5.068196   6.003844   2.409246   1.393327   0.000000
    11  C    5.422382   6.792662   3.103300   2.353217   1.411669
    12  H    4.714631   6.357010   2.835855   2.572157   2.097683
    13  H    6.236150   7.476618   3.763913   2.801814   2.084080
    14  H    5.977246   7.471148   3.893770   3.209611   1.969001
    15  C    5.275092   5.311403   2.425315   1.402159   2.432844
    16  N    6.693056   6.702346   3.781935   2.514013   2.919738
    17  N    7.300227   7.669604   4.383552   3.042831   3.021518
    18  C    8.626287   8.934218   5.713534   4.369764   4.231753
    19  C    9.388714   9.998403   6.557011   5.241814   4.837082
    20  C   10.779901  11.314520   7.939079   6.616013   6.218426
    21  C   11.649321  12.394050   8.897110   7.612910   7.075602
    22  C   11.317412  12.333015   8.714344   7.511013   6.835061
    23  S   12.783184  13.980978  10.322850   9.183865   8.418674
    24  O   13.297588  14.512720  10.808193   9.628483   8.703235
    25  O   12.397684  13.807026  10.167664   9.168125   8.406791
    26  O   13.804427  14.862788  11.285303  10.121310   9.489242
    27  C   10.001392  11.135070   7.472990   6.327507   5.602946
    28  C    8.962077   9.915549   6.294189   5.079019   4.461532
    29  H    7.919405   8.993291   5.321853   4.175196   3.505677
    30  H    9.893268  11.253781   7.567337   6.544345   5.727281
    31  H   12.721851  13.405013   9.951955   8.656133   8.140834
    32  C   11.458252  11.698380   8.561215   7.223075   6.990404
    33  C   10.933318  10.913834   8.025283   6.706760   6.656980
    34  C    9.513667   9.465990   6.603934   5.296108   5.345470
    35  O    9.209663   8.854746   6.366348   5.149128   5.426000
    36  H   11.645228  11.423148   8.760447   7.474446   7.518829
    37  H   12.546611  12.777897   9.655637   8.319266   8.063707
    38  H    7.339371   7.035255   4.519163   3.371857   3.893293
    39  C    5.126263   4.624717   2.768967   2.410301   3.692582
    40  H    6.115106   5.334218   3.867413   3.411123   4.592856
    41  H    2.452824   3.898475   1.101490   2.163772   2.629255
    42  H    4.548237   2.644977   4.131145   4.787806   6.125414
    43  H    5.728474   4.286100   4.556071   4.782380   6.147428
    44  H    4.557406   3.411899   4.137243   4.793724   6.175877
                   11         12         13         14         15
    11  C    0.000000
    12  H    1.096068   0.000000
    13  H    1.102436   1.798960   0.000000
    14  H    1.093220   1.794143   1.793051   0.000000
    15  C    3.349298   3.703597   3.389293   4.246467   0.000000
    16  N    3.721477   4.378220   3.437561   4.474398   1.453652
    17  N    3.341655   4.096400   2.707961   4.032217   2.388291
    18  C    4.413902   5.221860   3.616516   4.955507   3.626544
    19  C    4.617429   5.419352   3.645452   4.985879   4.770203
    20  C    5.995883   6.795049   5.011887   6.290817   6.042172
    21  C    6.624204   7.376167   5.609511   6.784027   7.198626
    22  C    6.138844   6.812737   5.138587   6.185376   7.340047
    23  S    7.569284   8.156767   6.624899   7.473557   9.124369
    24  O    7.927803   8.620189   7.096169   7.645814   9.645183
    25  O    7.361590   7.775247   6.460534   7.257884   9.270552
    26  O    8.713195   9.288343   7.702822   8.732976   9.890296
    27  C    4.798134   5.439895   3.809755   4.851772   6.323628
    28  C    3.865224   4.600182   2.836032   4.111584   4.970037
    29  H    2.782616   3.498239   1.741454   3.099515   4.288144
    30  H    4.709612   5.224107   3.818356   4.635477   6.754606
    31  H    7.720353   8.474755   6.707979   7.863974   8.171964
    32  C    7.003011   7.822807   6.078633   7.366414   6.413863
    33  C    6.920417   7.739067   6.101989   7.384429   5.720750
    34  C    5.753419   6.553766   5.039136   6.302521   4.273662
    35  O    6.092098   6.844337   5.544088   6.708988   3.951981
    36  H    7.891694   8.704287   7.116055   8.373405   6.383384
    37  H    8.032784   8.849227   7.087270   8.352636   7.503560
    38  H    4.736315   5.371958   4.412997   5.475983   2.108628
    39  C    4.570913   4.703383   4.630220   5.519970   1.399957
    40  H    5.453725   5.661994   5.360345   6.399520   2.169413
    41  H    3.061033   2.583736   3.935443   3.643976   3.418416
    42  H    7.034976   6.827607   7.387730   7.913989   4.424673
    43  H    6.973427   6.885360   7.059984   7.950911   3.970339
    44  H    6.777388   6.413223   6.974935   7.772025   4.420555
                   16         17         18         19         20
    16  N    0.000000
    17  N    1.330173   0.000000
    18  C    2.341818   1.330878   0.000000
    19  C    3.649060   2.396326   1.464616   0.000000
    20  C    4.815319   3.670702   2.477008   1.407944   0.000000
    21  C    6.061276   4.829707   3.766626   2.434221   1.402899
    22  C    6.387092   5.074588   4.293991   2.829797   2.432629
    23  S    8.229092   6.910284   6.161433   4.697471   4.155645
    24  O    8.696014   7.423760   6.675727   5.262543   4.722835
    25  O    8.579364   7.254412   6.732811   5.301722   5.078474
    26  O    8.910623   7.613689   6.699644   5.285409   4.421552
    27  C    5.546278   4.226796   3.776721   2.420131   2.774716
    28  C    4.157523   2.838695   2.510397   1.400500   2.413639
    29  H    3.744349   2.530092   2.752940   2.175121   3.420789
    30  H    6.166434   4.885124   4.662600   3.412721   3.872894
    31  H    6.976866   5.797540   4.642511   3.427467   2.166792
    32  C    5.061416   4.182311   2.853435   2.475860   1.444306
    33  C    4.326149   3.758104   2.519363   2.876121   2.442498
    34  C    2.870583   2.467828   1.478978   2.539530   2.873605
    35  O    2.639417   2.841055   2.369051   3.673837   4.111218
    36  H    5.002900   4.647719   3.501872   3.971145   3.444007
    37  H    6.147100   5.278127   3.950091   3.445507   2.177717
    38  H    1.015050   1.994063   2.532309   3.980395   4.938521
    39  C    2.444658   3.498812   4.581208   5.815183   6.990650
    40  H    2.651182   3.725555   4.562202   5.888967   6.914083
    41  H    4.673162   5.118588   6.440210   7.129197   8.533816
    42  H    5.587304   6.698661   7.776252   9.017941  10.178259
    43  H    4.845536   5.892433   6.786314   8.053031   9.083395
    44  H    5.600421   6.469408   7.517389   8.613405   9.756810
                   21         22         23         24         25
    21  C    0.000000
    22  C    1.386229   0.000000
    23  S    2.834462   1.867880   0.000000
    24  O    3.478065   2.673335   1.501699   0.000000
    25  O    3.918786   2.684670   1.501062   2.516348   0.000000
    26  O    3.045165   2.677237   1.504805   2.512624   2.521627
    27  C    2.385936   1.396469   2.857431   3.526798   3.072422
    28  C    2.777703   2.432115   4.161465   4.749471   4.439509
    29  H    3.881116   3.423922   5.014627   5.553481   5.052566
    30  H    3.378923   2.151805   2.967991   3.579360   2.683550
    31  H    1.099286   2.147418   2.939783   3.503563   4.231723
    32  C    2.460178   3.742208   5.285345   5.774551   6.343926
    33  C    3.701451   4.872623   6.533242   6.996221   7.505641
    34  C    4.275703   5.159957   6.977713   7.452273   7.746242
    35  O    5.513022   6.376667   8.205712   8.655854   8.938987
    36  H    4.590343   5.843418   7.415377   7.843328   8.457154
    37  H    2.650191   4.034788   5.282933   5.733453   6.481094
    38  H    6.280187   6.803419   8.669548   9.151635   9.136466
    39  C    8.203031   8.438114  10.235756  10.852940  10.368470
    40  H    8.196718   8.598422  10.427935  11.085620  10.667899
    41  H    9.382427   9.054028  10.554841  10.979191  10.290006
    42  H   11.392317  11.596434  13.361688  14.005144  13.378528
    43  H   10.328693  10.669459  12.456624  13.195161  12.562510
    44  H   10.880438  11.013941  12.707462  13.508364  12.602728
                   26         27         28         29         30
    26  O    0.000000
    27  C    3.922269   0.000000
    28  C    5.063333   1.388948   0.000000
    29  H    6.024352   2.158026   1.103618   0.000000
    30  H    4.238434   1.098218   2.154773   2.475310   0.000000
    31  H    2.657060   3.384069   3.876942   4.980349   4.286491
    32  C    5.252752   4.218829   3.743845   4.646064   5.316979
    33  C    6.573900   5.077746   4.274876   4.955574   6.154930
    34  C    7.275211   4.958146   3.839442   4.219815   5.941767
    35  O    8.508805   6.083501   4.872190   5.061808   7.016419
    36  H    7.314661   6.144286   5.369929   6.036027   7.228802
    37  H    4.978632   4.809899   4.590417   5.572692   5.887690
    38  H    9.214033   6.127280   4.757050   4.523141   6.856606
    39  C   10.891930   7.482418   6.134194   5.509577   7.940147
    40  H   10.948902   7.784929   6.430386   5.969545   8.360973
    41  H   11.617020   7.743133   6.677487   5.630850   7.689760
    42  H   14.020936  10.585093   9.269395   8.549481  10.937002
    43  H   12.960581   9.796461   8.480744   7.919345  10.271877
    44  H   13.300224  10.006843   8.773668   8.066871  10.309723
                   31         32         33         34         35
    31  H    0.000000
    32  C    2.673174   0.000000
    33  C    4.015974   1.344808   0.000000
    34  C    4.890805   2.448348   1.464842   0.000000
    35  O    6.103910   3.568048   2.356604   1.237715   0.000000
    36  H    4.714813   2.130957   1.095087   2.196253   2.611295
    37  H    2.389373   1.097466   2.124124   3.451488   4.475200
    38  H    7.093891   4.890508   3.934233   2.492382   1.878037
    39  C    9.123052   7.187517   6.348469   4.933720   4.359946
    40  H    9.033254   6.901210   5.936476   4.598414   3.856894
    41  H   10.462741   9.277020   8.841306   7.447814   7.300383
    42  H   12.300950  10.289644   9.343343   7.972186   7.183804
    43  H   11.162044   9.060887   8.080647   6.808994   6.005399
    44  H   11.786197   9.962548   9.144819   7.840739   7.231039
                   36         37         38         39         40
    36  H    0.000000
    37  H    2.472209   0.000000
    38  H    4.426432   5.929439   0.000000
    39  C    6.853022   8.242194   2.591602   0.000000
    40  H    6.296605   7.904761   2.372273   1.098610   0.000000
    41  H    9.631552  10.365568   5.486280   3.870434   4.968899
    42  H    9.678650  11.311521   5.575603   3.207420   3.421165
    43  H    8.342441  10.028614   4.627690   2.570847   2.268086
    44  H    9.556760  10.962368   5.671386   3.200624   3.411380
                   41         42         43         44
    41  H    0.000000
    42  H    4.906481   0.000000
    43  H    5.539527   1.775442   0.000000
    44  H    4.915963   1.772478   1.775557   0.000000
 Stoichiometry    C18H14N2O8S2(2-)
 Framework group  C1[X(C18H14N2O8S2)]
 Deg. of freedom   126
 Full point group                 C1      NOp   1
 Largest Abelian subgroup         C1      NOp   1
 Largest concise Abelian subgroup C1      NOp   1
                         Standard orientation:                         
 ---------------------------------------------------------------------
 Center     Atomic      Atomic             Coordinates (Angstroms)
 Number     Number       Type             X           Y           Z
 ---------------------------------------------------------------------
      1          6           0        5.500639    1.697026    1.334976
      2          6           0        4.491082    0.930689    0.554181
      3          6           0        4.766963   -0.357759    0.069768
      4         16           0        6.413498   -1.239504    0.335777
      5          8           0        6.568633   -1.323090    1.826278
      6          8           0        6.255230   -2.575253   -0.328272
      7          8           0        7.428645   -0.354154   -0.328536
      8          6           0        3.776744   -1.008428   -0.656045
      9          6           0        2.534081   -0.411655   -0.914482
     10          8           0        1.643298   -1.050489   -1.774574
     11          6           0        0.920126   -2.104251   -1.175059
     12          1           0        1.550330   -2.762585   -0.566122
     13          1           0        0.082287   -1.722825   -0.568507
     14          1           0        0.527669   -2.651721   -2.036096
     15          6           0        2.260703    0.869034   -0.413334
     16          7           0        1.021511    1.582196   -0.675837
     17          7           0       -0.125293    0.971336   -0.391143
     18          6           0       -1.286354    1.612226   -0.279642
     19          6           0       -2.499372    0.809501   -0.108415
     20          6           0       -3.731370    1.462201    0.087723
     21          6           0       -4.906396    0.711213    0.240882
     22          6           0       -4.888772   -0.674371    0.202459
     23         16           0       -6.474783   -1.646037    0.373949
     24          8           0       -6.998846   -1.759961   -1.028720
     25          8           0       -6.067449   -2.958238    0.978427
     26          8           0       -7.341319   -0.801455    1.268508
     27          6           0       -3.659965   -1.310629    0.014486
     28          6           0       -2.482284   -0.590549   -0.139553
     29          1           0       -1.531047   -1.129802   -0.288972
     30          1           0       -3.631297   -2.408325   -0.003509
     31          1           0       -5.862440    1.229121    0.402686
     32          6           0       -3.797425    2.904409    0.128861
     33          6           0       -2.709193    3.677052   -0.036310
     34          6           0       -1.389304    3.087603   -0.273385
     35          8           0       -0.390616    3.799557   -0.439762
     36          1           0       -2.775777    4.769673   -0.005315
     37          1           0       -4.782022    3.357815    0.300393
     38          1           0        1.039500    2.584818   -0.518508
     39          6           0        3.255201    1.531192    0.316323
     40          1           0        3.069859    2.540884    0.707620
     41          1           0        3.977289   -2.018325   -1.047413
     42          1           0        6.418458    1.841084    0.746804
     43          1           0        5.135069    2.688989    1.633463
     44          1           0        5.777941    1.152756    2.249342
 ---------------------------------------------------------------------
 Rotational constants (GHZ):           0.2883801           0.0490381           0.0438284
 Standard basis: 6-311+G(2d,p) (5D, 7F)
 There are   970 symmetry adapted cartesian basis functions of A   symmetry.
 There are   910 symmetry adapted basis functions of A   symmetry.
   910 basis functions,  1400 primitive gaussians,   970 cartesian basis functions
   117 alpha electrons      117 beta electrons
       nuclear repulsion energy      3103.1413336538 Hartrees.
 NAtoms=   44 NActive=   44 NUniq=   44 SFac= 1.00D+00 NAtFMM=   60 NAOKFM=F Big=F
 Integral buffers will be    131072 words long.
 Regular integral format.
 Two-electron integral symmetry is turned on.
 One-electron integrals computed using PRISM.
 NBasis=   910 RedAO= T EigKep=  1.14D-06  NBF=   910
 NBsUse=   903 1.00D-06 EigRej=  6.98D-07 NBFU=   903
 ExpMin= 4.05D-02 ExpMax= 9.34D+04 ExpMxC= 3.17D+03 IAcc=3 IRadAn=         5 AccDes= 0.00D+00
 Harris functional with IExCor=  402 and IRadAn=       5 diagonalized for initial guess.
 HarFok:  IExCor=  402 AccDes= 0.00D+00 IRadAn=         5 IDoV= 1 UseB2=F ITyADJ=14
 ICtDFT=  3500011 ScaDFX=  1.000000  1.000000  1.000000  1.000000
 FoFCou: FMM=F IPFlag=           0 FMFlag=      100000 FMFlg1=           0
         NFxFlg=           0 DoJE=T BraDBF=F KetDBF=T FulRan=T
         wScrn=  0.000000 ICntrl=       500 IOpCl=  0 I1Cent=   200000004 NGrid=           0
         NMat0=    1 NMatS0=      1 NMatT0=    0 NMatD0=    1 NMtDS0=    0 NMtDT0=    0
 Petite list used in FoFCou.
 Requested convergence on RMS density matrix=1.00D-08 within 128 cycles.
 Requested convergence on MAX density matrix=1.00D-06.
 Requested convergence on             energy=1.00D-06.
 No special actions if energy rises.
 EnCoef did     1 forward-backward iterations
 SCF Done:  E(RB3LYP) =  -2202.52404593     A.U. after   18 cycles
            NFock= 18  Conv=0.51D-08     -V/T= 2.0033
 DoSCS=F DFT=T ScalE2(SS,OS)=  1.000000  1.000000
 ExpMin= 4.05D-02 ExpMax= 9.34D+04 ExpMxC= 3.17D+03 IAcc=3 IRadAn=         5 AccDes= 0.00D+00
 HarFok:  IExCor=  205 AccDes= 0.00D+00 IRadAn=         5 IDoV=-2 UseB2=F ITyADJ=14
 ICtDFT= 12500011 ScaDFX=  1.000000  1.000000  1.000000  1.000000
 GSVD:  LWork=       -1748 too small for GESVD, short by        7790 words or        7790 for optimal perf.
 Range of M.O.s used for correlation:    39   903
 NBasis=   910 NAE=   117 NBE=   117 NFC=    38 NFV=     0
 NROrb=    865 NOA=    79 NOB=    79 NVA=   786 NVB=   786

 **** Warning!!: The largest alpha MO coefficient is  0.16759886D+03


 **** Warning!!: The smallest alpha delta epsilon is  0.96979414D-01

 Orbital symmetries:
       Occupied  (A) (A) (A) (A) (A) (A) (A) (A) (A) (A) (A) (A)
                 (A) (A) (A) (A) (A) (A) (A) (A) (A) (A) (A) (A)
                 (A) (A) (A) (A) (A) (A) (A) (A) (A) (A) (A) (A)
                 (A) (A) (A) (A) (A) (A) (A) (A) (A) (A) (A) (A)
                 (A) (A) (A) (A) (A) (A) (A) (A) (A) (A) (A) (A)
                 (A) (A) (A) (A) (A) (A) (A) (A) (A) (A) (A) (A)
                 (A) (A) (A) (A) (A) (A) (A) (A) (A) (A) (A) (A)
                 (A) (A) (A) (A) (A) (A) (A) (A) (A) (A) (A) (A)
                 (A) (A) (A) (A) (A) (A) (A) (A) (A) (A) (A) (A)
                 (A) (A) (A) (A) (A) (A) (A) (A) (A)
       Virtual   (A) (A) (A) (A) (A) (A) (A) (A) (A) (A) (A) (A)
                 (A) (A) (A) (A) (A) (A) (A) (A) (A) (A) (A) (A)
                 (A) (A) (A) (A) (A) (A) (A) (A) (A) (A) (A) (A)
                 (A) (A) (A) (A) (A) (A) (A) (A) (A) (A) (A) (A)
                 (A) (A) (A) (A) (A) (A) (A) (A) (A) (A) (A) (A)
                 (A) (A) (A) (A) (A) (A) (A) (A) (A) (A) (A) (A)
                 (A) (A) (A) (A) (A) (A) (A) (A) (A) (A) (A) (A)
                 (A) (A) (A) (A) (A) (A) (A) (A) (A) (A) (A) (A)
                 (A) (A) (A) (A) (A) (A) (A) (A) (A) (A) (A) (A)
                 (A) (A) (A) (A) (A) (A) (A) (A) (A) (A) (A) (A)
                 (A) (A) (A) (A) (A) (A) (A) (A) (A) (A) (A) (A)
                 (A) (A) (A) (A) (A) (A) (A) (A) (A) (A) (A) (A)
                 (A) (A) (A) (A) (A) (A) (A) (A) (A) (A) (A) (A)
                 (A) (A) (A) (A) (A) (A) (A) (A) (A) (A) (A) (A)
                 (A) (A) (A) (A) (A) (A) (A) (A) (A) (A) (A) (A)
                 (A) (A) (A) (A) (A) (A) (A) (A) (A) (A) (A) (A)
                 (A) (A) (A) (A) (A) (A) (A) (A) (A) (A) (A) (A)
                 (A) (A) (A) (A) (A) (A) (A) (A) (A) (A) (A) (A)
                 (A) (A) (A) (A) (A) (A) (A) (A) (A) (A) (A) (A)
                 (A) (A) (A) (A) (A) (A) (A) (A) (A) (A) (A) (A)
                 (A) (A) (A) (A) (A) (A) (A) (A) (A) (A) (A) (A)
                 (A) (A) (A) (A) (A) (A) (A) (A) (A) (A) (A) (A)
                 (A) (A) (A) (A) (A) (A) (A) (A) (A) (A) (A) (A)
                 (A) (A) (A) (A) (A) (A) (A) (A) (A) (A) (A) (A)
                 (A) (A) (A) (A) (A) (A) (A) (A) (A) (A) (A) (A)
                 (A) (A) (A) (A) (A) (A) (A) (A) (A) (A) (A) (A)
                 (A) (A) (A) (A) (A) (A) (A) (A) (A) (A) (A) (A)
                 (A) (A) (A) (A) (A) (A) (A) (A) (A) (A) (A) (A)
                 (A) (A) (A) (A) (A) (A) (A) (A) (A) (A) (A) (A)
                 (A) (A) (A) (A) (A) (A) (A) (A) (A) (A) (A) (A)
                 (A) (A) (A) (A) (A) (A) (A) (A) (A) (A) (A) (A)
                 (A) (A) (A) (A) (A) (A) (A) (A) (A) (A) (A) (A)
                 (A) (A) (A) (A) (A) (A) (A) (A) (A) (A) (A) (A)
                 (A) (A) (A) (A) (A) (A) (A) (A) (A) (A) (A) (A)
                 (A) (A) (A) (A) (A) (A) (A) (A) (A) (A) (A) (A)
                 (A) (A) (A) (A) (A) (A) (A) (A) (A) (A) (A) (A)
                 (A) (A) (A) (A) (A) (A) (A) (A) (A) (A) (A) (A)
                 (A) (A) (A) (A) (A) (A) (A) (A) (A) (A) (A) (A)
                 (A) (A) (A) (A) (A) (A) (A) (A) (A) (A) (A) (A)
                 (A) (A) (A) (A) (A) (A) (A) (A) (A) (A) (A) (A)
                 (A) (A) (A) (A) (A) (A) (A) (A) (A) (A) (A) (A)
                 (A) (A) (A) (A) (A) (A) (A) (A) (A) (A) (A) (A)
                 (A) (A) (A) (A) (A) (A) (A) (A) (A) (A) (A) (A)
                 (A) (A) (A) (A) (A) (A) (A) (A) (A) (A) (A) (A)
                 (A) (A) (A) (A) (A) (A) (A) (A) (A) (A) (A) (A)
                 (A) (A) (A) (A) (A) (A) (A) (A) (A) (A) (A) (A)
                 (A) (A) (A) (A) (A) (A) (A) (A) (A) (A) (A) (A)
                 (A) (A) (A) (A) (A) (A) (A) (A) (A) (A) (A) (A)
                 (A) (A) (A) (A) (A) (A) (A) (A) (A) (A) (A) (A)
                 (A) (A) (A) (A) (A) (A) (A) (A) (A) (A) (A) (A)
                 (A) (A) (A) (A) (A) (A) (A) (A) (A) (A) (A) (A)
                 (A) (A) (A) (A) (A) (A) (A) (A) (A) (A) (A) (A)
                 (A) (A) (A) (A) (A) (A) (A) (A) (A) (A) (A) (A)
                 (A) (A) (A) (A) (A) (A) (A) (A) (A) (A) (A) (A)
                 (A) (A) (A) (A) (A) (A) (A) (A) (A) (A) (A) (A)
                 (A) (A) (A) (A) (A) (A) (A) (A) (A) (A) (A) (A)
                 (A) (A) (A) (A) (A) (A) (A) (A) (A) (A) (A) (A)
                 (A) (A) (A) (A) (A) (A) (A) (A) (A) (A) (A) (A)
                 (A) (A) (A) (A) (A) (A) (A) (A) (A) (A) (A) (A)
                 (A) (A) (A) (A) (A) (A) (A) (A) (A) (A) (A) (A)
                 (A) (A) (A) (A) (A) (A) (A) (A) (A) (A) (A) (A)
                 (A) (A) (A) (A) (A) (A) (A) (A) (A) (A) (A) (A)
                 (A) (A) (A) (A) (A) (A) (A) (A) (A) (A) (A) (A)
                 (A) (A) (A) (A) (A) (A) (A) (A) (A) (A) (A) (A)
                 (A) (A) (A) (A) (A) (A) (A) (A) (A) (A) (A) (A)
                 (A) (A) (A) (A) (A) (A)
    40 initial guesses have been made.
 Convergence on wavefunction:    0.001000000000000
 Iteration     1 Dimension    40 NMult     0 NNew     40
 CISAX will form    12 AO SS matrices at one time.
 New state      4 was old state     12
 New state      5 was old state      4
 New state      6 was old state      5
 New state      7 was old state      8
 New state      8 was old state      6
 New state      9 was old state      7
 New state     10 was old state      9
 Iteration     2 Dimension    60 NMult    40 NNew     20
 New state      7 was old state      8
 New state      8 was old state      7
 New state      9 was old state     10
 New state     10 was old state      9
 Iteration     3 Dimension    80 NMult    60 NNew     20
 Iteration     4 Dimension    98 NMult    80 NNew     18
 Iteration     5 Dimension   114 NMult    98 NNew     16
 Iteration     6 Dimension   116 NMult   114 NNew      2
 ***********************************************************************
 Excited states from <AA,BB:AA,BB> singles matrix:
 ***********************************************************************
 
 Ground to excited state transition densities written to RWF  633
 Ground to excited state transition electric dipole moments (Au):
       state          X           Y           Z        Dip. S.      Osc.
         1        -0.0119      0.0215      0.0063      0.0006      0.0000
         2        -0.2303      0.0482     -0.0006      0.0554      0.0033
         3        -2.1465      0.5161      0.0790      4.8801      0.3050
         4        -0.5870      0.0762     -0.0374      0.3517      0.0247
         5         0.3791     -0.0566     -0.0333      0.1480      0.0106
         6        -0.8216     -0.3808     -0.0021      0.8200      0.0636
         7         0.0207     -0.5427      0.1088      0.3068      0.0243
         8         0.0852     -0.0490     -0.0384      0.0111      0.0009
         9         0.1614      0.1786     -0.0209      0.0584      0.0048
        10        -0.1193      0.1009     -0.0746      0.0300      0.0025
 Ground to excited state transition velocity dipole moments (Au):
       state          X           Y           Z        Dip. S.      Osc.
         1         0.0010     -0.0019     -0.0003      0.0000      0.0000
         2         0.0204     -0.0041      0.0001      0.0004      0.0033
         3         0.1998     -0.0482     -0.0077      0.0423      0.3008
         4         0.0619     -0.0078      0.0047      0.0039      0.0248
         5        -0.0411      0.0053      0.0044      0.0017      0.0108
         6         0.0953      0.0455      0.0002      0.0112      0.0639
         7        -0.0023      0.0649     -0.0129      0.0044      0.0246
         8        -0.0103      0.0060      0.0044      0.0002      0.0009
         9        -0.0206     -0.0223      0.0024      0.0009      0.0050
        10         0.0151     -0.0124      0.0086      0.0005      0.0024
 Ground to excited state transition magnetic dipole moments (Au):
       state          X           Y           Z
         1        -0.0060      0.0135     -0.0228
         2         0.0036     -0.0108     -0.0873
         3        -0.0598     -0.2151     -0.4559
         4        -0.0405      0.1453     -0.6078
         5         0.0560      0.1245      0.6620
         6        -0.1342     -0.1678     -0.9798
         7        -0.0875      0.0972     -0.9894
         8        -0.0084      0.1395     -0.0964
         9         0.0131      0.0239      0.5434
        10        -0.0083     -0.1260      0.1064
 Ground to excited state transition velocity quadrupole moments (Au):
       state          XX          YY          ZZ          XY          XZ          YZ
         1        -0.0273      0.0113      0.0009      0.0219      0.0108     -0.0013
         2         0.0358     -0.0521      0.0095      0.0214      0.0227     -0.0005
         3        -0.0389     -0.4316      0.0407      0.0288      0.0631      0.0362
         4         0.2660     -0.0053      0.0203     -0.0249      0.0228      0.0134
         5        -0.4467     -0.1030     -0.0160      0.0152     -0.0114      0.0102
         6        -0.1316      0.1893     -0.0010     -0.0652      0.0596     -0.0286
         7        -0.9053      0.3558     -0.0165     -0.1740     -0.0071     -0.0371
         8        -0.0637      0.0492     -0.0037     -0.0427     -0.0975     -0.0218
         9         0.1533     -0.0971     -0.0010      0.0294      0.0038      0.0143
        10         0.1314     -0.0727      0.0218      0.0315      0.0801     -0.0092
 <0|del|b> * <b|rxdel|0> + <0|del|b> * <b|delr+rdel|0>
 Rotatory Strengths (R) in cgs (10**-40 erg-esu-cm/Gauss)
       state          XX          YY          ZZ    R(velocity)    E-M Angle
         1        -0.0206      0.0310     -0.2184     -0.0693       90.00
         2         0.5154      0.1950      0.1392      0.2832       86.69
         3        62.9106     -3.7171    -44.6756      4.8393       88.94
         4       -13.2369    -14.8970    -15.5674    -14.5671       99.57
         5        12.2367      0.4471     -4.2098      2.8247       87.38
         6       -32.0042    -47.6462    -45.5175    -41.7226      101.21
         7        64.8580     32.1780     17.7852     38.2737       73.05
         8         2.3482      0.2209      0.3276      0.9656       76.62
         9         2.6596      1.9248     -1.6947      0.9633       88.25
        10        10.6002      1.0798      1.6470      4.4423       48.09
 1/2[<0|r|b>*<b|rxdel|0> + (<0|rxdel|b>*<b|r|0>)*]
 Rotatory Strengths (R) in cgs (10**-40 erg-esu-cm/Gauss)
       state          XX          YY          ZZ     R(length)
         1        -0.0502     -0.2048      0.1022     -0.0509
         2         0.5922      0.3695     -0.0361      0.3086
         3       -90.7064     78.5134     25.4652      4.4241
         4       -16.8198     -7.8286    -16.0905    -13.5796
         5       -15.0003      4.9812     15.5687      1.8499
         6       -77.9531    -45.1933     -1.4696    -41.5387
         7         1.2830     37.3131     76.1564     38.2508
         8         0.5059      4.8282     -2.6173      0.9056
         9        -1.4961     -3.0144      8.0186      1.1694
        10        -0.7006      8.9889      5.6107      4.6330
  1/2[<0|del|b>*<b|r|0> + (<0|r|b>*<b|del|0>)*] (Au)
       state          X           Y           Z        Dip. S.   Osc.(frdel)
         1        -0.0000     -0.0000     -0.0000      0.0001      0.0000
         2        -0.0047     -0.0002     -0.0000      0.0049      0.0033
         3        -0.4289     -0.0249     -0.0006      0.4543      0.3029
         4        -0.0363     -0.0006     -0.0002      0.0371      0.0247
         5        -0.0156     -0.0003     -0.0001      0.0160      0.0107
         6        -0.0783     -0.0173     -0.0000      0.0956      0.0638
         7        -0.0000     -0.0352     -0.0014      0.0367      0.0244
         8        -0.0009     -0.0003     -0.0002      0.0013      0.0009
         9        -0.0033     -0.0040     -0.0001      0.0073      0.0049
        10        -0.0018     -0.0013     -0.0006      0.0037      0.0025

 Excitation energies and oscillator strengths:
 
 Excited State   1:      Singlet-A      2.2064 eV  561.94 nm  f=0.0000  <S**2>=0.000
     117 ->118         0.70636
 This state for optimization and/or second-order correction.
 Total Energy, E(TD-HF/TD-DFT) =  -2202.44296348    
 Copying the excited state density for this state as the 1-particle RhoCI density.
 
 Excited State   2:      Singlet-A      2.4001 eV  516.58 nm  f=0.0033  <S**2>=0.000
     116 ->118         0.70609
 
 Excited State   3:      Singlet-A      2.5513 eV  485.97 nm  f=0.3050  <S**2>=0.000
     115 ->118         0.69964
 
 Excited State   4:      Singlet-A      2.8674 eV  432.39 nm  f=0.0247  <S**2>=0.000
     106 ->118         0.55429
     108 ->118         0.15212
     114 ->118        -0.36730
 
 Excited State   5:      Singlet-A      2.9221 eV  424.30 nm  f=0.0106  <S**2>=0.000
     106 ->118         0.33361
     111 ->118         0.12795
     113 ->118         0.10598
     114 ->118         0.57683
 
 Excited State   6:      Singlet-A      3.1674 eV  391.44 nm  f=0.0636  <S**2>=0.000
     109 ->118        -0.22650
     111 ->118         0.14146
     112 ->118         0.37324
     113 ->118         0.52306
 
 Excited State   7:      Singlet-A      3.2262 eV  384.30 nm  f=0.0243  <S**2>=0.000
     109 ->118        -0.22951
     111 ->118        -0.10641
     112 ->118         0.47832
     113 ->118        -0.40565
     114 ->118         0.15501
 
 Excited State   8:      Singlet-A      3.3032 eV  375.34 nm  f=0.0009  <S**2>=0.000
     110 ->118         0.69248
     111 ->118        -0.10969
 
 Excited State   9:      Singlet-A      3.3710 eV  367.80 nm  f=0.0048  <S**2>=0.000
     109 ->118         0.60644
     111 ->118        -0.10057
     112 ->118         0.33715
 
 Excited State  10:      Singlet-A      3.3946 eV  365.24 nm  f=0.0025  <S**2>=0.000
     106 ->118        -0.12448
     108 ->118        -0.12508
     110 ->118         0.10423
     111 ->118         0.63668
     113 ->118        -0.18677
 SavETr:  write IOETrn=   770 NScale= 10 NData=  16 NLR=1 NState=   10 LETran=     190.

 **********************************************************************

            Population analysis using the SCF density.

 **********************************************************************

 Orbital symmetries:
       Occupied  (A) (A) (A) (A) (A) (A) (A) (A) (A) (A) (A) (A)
                 (A) (A) (A) (A) (A) (A) (A) (A) (A) (A) (A) (A)
                 (A) (A) (A) (A) (A) (A) (A) (A) (A) (A) (A) (A)
                 (A) (A) (A) (A) (A) (A) (A) (A) (A) (A) (A) (A)
                 (A) (A) (A) (A) (A) (A) (A) (A) (A) (A) (A) (A)
                 (A) (A) (A) (A) (A) (A) (A) (A) (A) (A) (A) (A)
                 (A) (A) (A) (A) (A) (A) (A) (A) (A) (A) (A) (A)
                 (A) (A) (A) (A) (A) (A) (A) (A) (A) (A) (A) (A)
                 (A) (A) (A) (A) (A) (A) (A) (A) (A) (A) (A) (A)
                 (A) (A) (A) (A) (A) (A) (A) (A) (A)
       Virtual   (A) (A) (A) (A) (A) (A) (A) (A) (A) (A) (A) (A)
                 (A) (A) (A) (A) (A) (A) (A) (A) (A) (A) (A) (A)
                 (A) (A) (A) (A) (A) (A) (A) (A) (A) (A) (A) (A)
                 (A) (A) (A) (A) (A) (A) (A) (A) (A) (A) (A) (A)
                 (A) (A) (A) (A) (A) (A) (A) (A) (A) (A) (A) (A)
                 (A) (A) (A) (A) (A) (A) (A) (A) (A) (A) (A) (A)
                 (A) (A) (A) (A) (A) (A) (A) (A) (A) (A) (A) (A)
                 (A) (A) (A) (A) (A) (A) (A) (A) (A) (A) (A) (A)
                 (A) (A) (A) (A) (A) (A) (A) (A) (A) (A) (A) (A)
                 (A) (A) (A) (A) (A) (A) (A) (A) (A) (A) (A) (A)
                 (A) (A) (A) (A) (A) (A) (A) (A) (A) (A) (A) (A)
                 (A) (A) (A) (A) (A) (A) (A) (A) (A) (A) (A) (A)
                 (A) (A) (A) (A) (A) (A) (A) (A) (A) (A) (A) (A)
                 (A) (A) (A) (A) (A) (A) (A) (A) (A) (A) (A) (A)
                 (A) (A) (A) (A) (A) (A) (A) (A) (A) (A) (A) (A)
                 (A) (A) (A) (A) (A) (A) (A) (A) (A) (A) (A) (A)
                 (A) (A) (A) (A) (A) (A) (A) (A) (A) (A) (A) (A)
                 (A) (A) (A) (A) (A) (A) (A) (A) (A) (A) (A) (A)
                 (A) (A) (A) (A) (A) (A) (A) (A) (A) (A) (A) (A)
                 (A) (A) (A) (A) (A) (A) (A) (A) (A) (A) (A) (A)
                 (A) (A) (A) (A) (A) (A) (A) (A) (A) (A) (A) (A)
                 (A) (A) (A) (A) (A) (A) (A) (A) (A) (A) (A) (A)
                 (A) (A) (A) (A) (A) (A) (A) (A) (A) (A) (A) (A)
                 (A) (A) (A) (A) (A) (A) (A) (A) (A) (A) (A) (A)
                 (A) (A) (A) (A) (A) (A) (A) (A) (A) (A) (A) (A)
                 (A) (A) (A) (A) (A) (A) (A) (A) (A) (A) (A) (A)
                 (A) (A) (A) (A) (A) (A) (A) (A) (A) (A) (A) (A)
                 (A) (A) (A) (A) (A) (A) (A) (A) (A) (A) (A) (A)
                 (A) (A) (A) (A) (A) (A) (A) (A) (A) (A) (A) (A)
                 (A) (A) (A) (A) (A) (A) (A) (A) (A) (A) (A) (A)
                 (A) (A) (A) (A) (A) (A) (A) (A) (A) (A) (A) (A)
                 (A) (A) (A) (A) (A) (A) (A) (A) (A) (A) (A) (A)
                 (A) (A) (A) (A) (A) (A) (A) (A) (A) (A) (A) (A)
                 (A) (A) (A) (A) (A) (A) (A) (A) (A) (A) (A) (A)
                 (A) (A) (A) (A) (A) (A) (A) (A) (A) (A) (A) (A)
                 (A) (A) (A) (A) (A) (A) (A) (A) (A) (A) (A) (A)
                 (A) (A) (A) (A) (A) (A) (A) (A) (A) (A) (A) (A)
                 (A) (A) (A) (A) (A) (A) (A) (A) (A) (A) (A) (A)
                 (A) (A) (A) (A) (A) (A) (A) (A) (A) (A) (A) (A)
                 (A) (A) (A) (A) (A) (A) (A) (A) (A) (A) (A) (A)
                 (A) (A) (A) (A) (A) (A) (A) (A) (A) (A) (A) (A)
                 (A) (A) (A) (A) (A) (A) (A) (A) (A) (A) (A) (A)
                 (A) (A) (A) (A) (A) (A) (A) (A) (A) (A) (A) (A)
                 (A) (A) (A) (A) (A) (A) (A) (A) (A) (A) (A) (A)
                 (A) (A) (A) (A) (A) (A) (A) (A) (A) (A) (A) (A)
                 (A) (A) (A) (A) (A) (A) (A) (A) (A) (A) (A) (A)
                 (A) (A) (A) (A) (A) (A) (A) (A) (A) (A) (A) (A)
                 (A) (A) (A) (A) (A) (A) (A) (A) (A) (A) (A) (A)
                 (A) (A) (A) (A) (A) (A) (A) (A) (A) (A) (A) (A)
                 (A) (A) (A) (A) (A) (A) (A) (A) (A) (A) (A) (A)
                 (A) (A) (A) (A) (A) (A) (A) (A) (A) (A) (A) (A)
                 (A) (A) (A) (A) (A) (A) (A) (A) (A) (A) (A) (A)
                 (A) (A) (A) (A) (A) (A) (A) (A) (A) (A) (A) (A)
                 (A) (A) (A) (A) (A) (A) (A) (A) (A) (A) (A) (A)
                 (A) (A) (A) (A) (A) (A) (A) (A) (A) (A) (A) (A)
                 (A) (A) (A) (A) (A) (A) (A) (A) (A) (A) (A) (A)
                 (A) (A) (A) (A) (A) (A) (A) (A) (A) (A) (A) (A)
                 (A) (A) (A) (A) (A) (A) (A) (A) (A) (A) (A) (A)
                 (A) (A) (A) (A) (A) (A) (A) (A) (A) (A) (A) (A)
                 (A) (A) (A) (A) (A) (A) (A) (A) (A) (A) (A) (A)
                 (A) (A) (A) (A) (A) (A) (A) (A) (A) (A) (A) (A)
                 (A) (A) (A) (A) (A) (A) (A) (A) (A) (A) (A) (A)
                 (A) (A) (A) (A) (A) (A) (A) (A) (A) (A) (A) (A)
                 (A) (A) (A) (A) (A) (A) (A) (A) (A) (A) (A) (A)
                 (A) (A) (A) (A) (A) (A) (A) (A) (A) (A) (A) (A)
                 (A) (A) (A) (A) (A) (A)
 The electronic state is 1-A.
 Alpha  occ. eigenvalues --  -88.84469 -88.84042 -18.99347 -18.96588 -18.89771
 Alpha  occ. eigenvalues --  -18.89676 -18.89673 -18.89338 -18.89273 -18.89212
 Alpha  occ. eigenvalues --  -14.24446 -14.22682 -10.11515 -10.08190 -10.07347
 Alpha  occ. eigenvalues --  -10.07228 -10.06902 -10.05849 -10.04338 -10.03957
 Alpha  occ. eigenvalues --  -10.03949 -10.03386 -10.03255 -10.03180 -10.03051
 Alpha  occ. eigenvalues --  -10.02690 -10.02615 -10.02459 -10.02207 -10.00470
 Alpha  occ. eigenvalues --   -7.89799  -7.89378  -5.86132  -5.86073  -5.86061
 Alpha  occ. eigenvalues --   -5.85710  -5.85651  -5.85642  -0.91071  -0.90412
 Alpha  occ. eigenvalues --   -0.89589  -0.89085  -0.87734  -0.76617  -0.76475
 Alpha  occ. eigenvalues --   -0.76143  -0.75947  -0.74229  -0.72054  -0.68716
 Alpha  occ. eigenvalues --   -0.67255  -0.62537  -0.61564  -0.59518  -0.58613
 Alpha  occ. eigenvalues --   -0.56144  -0.54253  -0.51234  -0.48904  -0.47930
 Alpha  occ. eigenvalues --   -0.47148  -0.46252  -0.43503  -0.41632  -0.40310
 Alpha  occ. eigenvalues --   -0.38934  -0.38841  -0.36042  -0.34837  -0.34446
 Alpha  occ. eigenvalues --   -0.33474  -0.33305  -0.31525  -0.30415  -0.30131
 Alpha  occ. eigenvalues --   -0.29955  -0.29796  -0.28996  -0.28475  -0.27863
 Alpha  occ. eigenvalues --   -0.27365  -0.26595  -0.25555  -0.25266  -0.25116
 Alpha  occ. eigenvalues --   -0.24878  -0.24773  -0.24679  -0.24227  -0.23208
 Alpha  occ. eigenvalues --   -0.22518  -0.21930  -0.21747  -0.20268  -0.19713
 Alpha  occ. eigenvalues --   -0.19247  -0.17374  -0.16932  -0.15243  -0.13699
 Alpha  occ. eigenvalues --   -0.13277  -0.13158  -0.12839  -0.12798  -0.12165
 Alpha  occ. eigenvalues --   -0.10741  -0.10121  -0.09918  -0.09620  -0.09442
 Alpha  occ. eigenvalues --   -0.09369  -0.09216  -0.09071  -0.07956  -0.06046
 Alpha  occ. eigenvalues --   -0.05563  -0.05137
 Alpha virt. eigenvalues --    0.04561   0.11030   0.13269   0.13399   0.13817
 Alpha virt. eigenvalues --    0.13983   0.14275   0.15324   0.16027   0.16498
 Alpha virt. eigenvalues --    0.17083   0.17426   0.17908   0.18276   0.18603
 Alpha virt. eigenvalues --    0.19123   0.19322   0.19690   0.20209   0.20564
 Alpha virt. eigenvalues --    0.21258   0.21536   0.21787   0.21934   0.22204
 Alpha virt. eigenvalues --    0.22424   0.22895   0.23002   0.23653   0.23876
 Alpha virt. eigenvalues --    0.24159   0.24218   0.24304   0.25033   0.25256
 Alpha virt. eigenvalues --    0.25357   0.25973   0.26265   0.26733   0.26826
 Alpha virt. eigenvalues --    0.27095   0.27286   0.27748   0.27882   0.28039
 Alpha virt. eigenvalues --    0.28428   0.28789   0.29214   0.29247   0.29423
 Alpha virt. eigenvalues --    0.29739   0.29908   0.30062   0.30360   0.30567
 Alpha virt. eigenvalues --    0.30775   0.30957   0.31126   0.31591   0.32076
 Alpha virt. eigenvalues --    0.32267   0.32383   0.32544   0.32817   0.32932
 Alpha virt. eigenvalues --    0.33041   0.33792   0.33930   0.34159   0.34528
 Alpha virt. eigenvalues --    0.34619   0.34856   0.35245   0.35421   0.35782
 Alpha virt. eigenvalues --    0.35905   0.36261   0.36395   0.36887   0.37095
 Alpha virt. eigenvalues --    0.37238   0.37278   0.37557   0.37874   0.38076
 Alpha virt. eigenvalues --    0.38374   0.38700   0.38725   0.39047   0.39448
 Alpha virt. eigenvalues --    0.39687   0.40098   0.40313   0.40807   0.40888
 Alpha virt. eigenvalues --    0.41301   0.41617   0.41680   0.41952   0.42015
 Alpha virt. eigenvalues --    0.42590   0.42661   0.43038   0.43162   0.43469
 Alpha virt. eigenvalues --    0.43826   0.43982   0.44166   0.44584   0.44918
 Alpha virt. eigenvalues --    0.45173   0.45480   0.45706   0.45775   0.46058
 Alpha virt. eigenvalues --    0.46302   0.46387   0.46854   0.47188   0.47394
 Alpha virt. eigenvalues --    0.47548   0.48119   0.48327   0.48512   0.48889
 Alpha virt. eigenvalues --    0.49032   0.49334   0.49429   0.49699   0.49989
 Alpha virt. eigenvalues --    0.50102   0.50286   0.50485   0.50903   0.51081
 Alpha virt. eigenvalues --    0.51266   0.51879   0.51980   0.52289   0.52489
 Alpha virt. eigenvalues --    0.52845   0.53391   0.53775   0.53968   0.54282
 Alpha virt. eigenvalues --    0.54660   0.55100   0.55374   0.55634   0.56403
 Alpha virt. eigenvalues --    0.56591   0.56806   0.57338   0.57587   0.57855
 Alpha virt. eigenvalues --    0.58330   0.58663   0.58904   0.59468   0.60390
 Alpha virt. eigenvalues --    0.60754   0.61232   0.62071   0.62220   0.62767
 Alpha virt. eigenvalues --    0.63140   0.63590   0.63731   0.64374   0.64927
 Alpha virt. eigenvalues --    0.65078   0.65229   0.65571   0.65986   0.66635
 Alpha virt. eigenvalues --    0.66771   0.67178   0.67762   0.68146   0.68405
 Alpha virt. eigenvalues --    0.68653   0.69169   0.69403   0.70005   0.70609
 Alpha virt. eigenvalues --    0.71482   0.71682   0.71907   0.72316   0.72471
 Alpha virt. eigenvalues --    0.73087   0.73779   0.74295   0.74543   0.75624
 Alpha virt. eigenvalues --    0.75824   0.76667   0.77002   0.77260   0.77643
 Alpha virt. eigenvalues --    0.78545   0.78750   0.79220   0.79593   0.79723
 Alpha virt. eigenvalues --    0.80514   0.81081   0.81642   0.81903   0.82756
 Alpha virt. eigenvalues --    0.82778   0.83052   0.83581   0.84032   0.84564
 Alpha virt. eigenvalues --    0.85028   0.85262   0.85498   0.85940   0.86164
 Alpha virt. eigenvalues --    0.86713   0.87433   0.87543   0.88243   0.88506
 Alpha virt. eigenvalues --    0.88592   0.88808   0.89439   0.89700   0.90102
 Alpha virt. eigenvalues --    0.90266   0.90856   0.91790   0.92673   0.92897
 Alpha virt. eigenvalues --    0.93236   0.93495   0.93790   0.94022   0.94604
 Alpha virt. eigenvalues --    0.95077   0.95350   0.95901   0.96583   0.96812
 Alpha virt. eigenvalues --    0.97497   0.97867   0.98322   0.98669   0.99024
 Alpha virt. eigenvalues --    0.99538   0.99956   1.00212   1.00537   1.01167
 Alpha virt. eigenvalues --    1.01416   1.01791   1.02322   1.02639   1.03082
 Alpha virt. eigenvalues --    1.03702   1.04202   1.04606   1.04987   1.05597
 Alpha virt. eigenvalues --    1.06116   1.06583   1.07041   1.07129   1.07433
 Alpha virt. eigenvalues --    1.07750   1.08188   1.09034   1.09552   1.10550
 Alpha virt. eigenvalues --    1.11126   1.11480   1.11778   1.13020   1.13274
 Alpha virt. eigenvalues --    1.14570   1.14926   1.16160   1.16658   1.17203
 Alpha virt. eigenvalues --    1.18102   1.19535   1.19863   1.20737   1.21262
 Alpha virt. eigenvalues --    1.21770   1.22280   1.22723   1.23867   1.24544
 Alpha virt. eigenvalues --    1.25139   1.25196   1.27112   1.27685   1.28324
 Alpha virt. eigenvalues --    1.28742   1.29483   1.29985   1.30814   1.31311
 Alpha virt. eigenvalues --    1.31692   1.32249   1.32640   1.33079   1.33677
 Alpha virt. eigenvalues --    1.34819   1.34988   1.35253   1.35525   1.36068
 Alpha virt. eigenvalues --    1.36345   1.36656   1.37382   1.37782   1.37914
 Alpha virt. eigenvalues --    1.38009   1.38715   1.39103   1.39246   1.39660
 Alpha virt. eigenvalues --    1.39744   1.40225   1.41033   1.41163   1.41586
 Alpha virt. eigenvalues --    1.41699   1.42056   1.42677   1.43120   1.43427
 Alpha virt. eigenvalues --    1.43752   1.44158   1.44839   1.45314   1.45830
 Alpha virt. eigenvalues --    1.46160   1.46718   1.47314   1.47506   1.48140
 Alpha virt. eigenvalues --    1.48785   1.49416   1.49732   1.50216   1.50741
 Alpha virt. eigenvalues --    1.51279   1.51754   1.52400   1.52769   1.53417
 Alpha virt. eigenvalues --    1.54263   1.54343   1.55303   1.55728   1.56371
 Alpha virt. eigenvalues --    1.56600   1.57616   1.58288   1.58687   1.60909
 Alpha virt. eigenvalues --    1.61592   1.62968   1.63808   1.64730   1.65255
 Alpha virt. eigenvalues --    1.66675   1.67350   1.68087   1.68277   1.68901
 Alpha virt. eigenvalues --    1.69176   1.69595   1.71303   1.71742   1.72218
 Alpha virt. eigenvalues --    1.72491   1.73588   1.73931   1.74307   1.74700
 Alpha virt. eigenvalues --    1.75495   1.75816   1.76292   1.76699   1.78248
 Alpha virt. eigenvalues --    1.78831   1.79011   1.79305   1.79704   1.80193
 Alpha virt. eigenvalues --    1.80349   1.81148   1.82394   1.83145   1.84752
 Alpha virt. eigenvalues --    1.85117   1.85564   1.87315   1.87964   1.88637
 Alpha virt. eigenvalues --    1.89345   1.89977   1.90513   1.91060   1.91872
 Alpha virt. eigenvalues --    1.92259   1.92718   1.92827   1.93640   1.94091
 Alpha virt. eigenvalues --    1.94566   1.96153   1.96976   1.97806   1.98314
 Alpha virt. eigenvalues --    1.99110   2.00304   2.00647   2.02263   2.02828
 Alpha virt. eigenvalues --    2.04037   2.04772   2.04991   2.05328   2.06864
 Alpha virt. eigenvalues --    2.07076   2.07901   2.08894   2.09476   2.10629
 Alpha virt. eigenvalues --    2.11023   2.12721   2.13111   2.14129   2.14524
 Alpha virt. eigenvalues --    2.15486   2.16226   2.16761   2.17467   2.19058
 Alpha virt. eigenvalues --    2.20399   2.21830   2.21976   2.24030   2.24902
 Alpha virt. eigenvalues --    2.25009   2.28161   2.32059   2.34490   2.35749
 Alpha virt. eigenvalues --    2.36277   2.37290   2.38142   2.38568   2.38907
 Alpha virt. eigenvalues --    2.39697   2.40410   2.40767   2.41599   2.42135
 Alpha virt. eigenvalues --    2.43423   2.43707   2.44843   2.45826   2.47267
 Alpha virt. eigenvalues --    2.47723   2.48768   2.50006   2.51157   2.52475
 Alpha virt. eigenvalues --    2.53138   2.53459   2.55119   2.55741   2.57306
 Alpha virt. eigenvalues --    2.57867   2.61058   2.62170   2.62648   2.65207
 Alpha virt. eigenvalues --    2.67775   2.69094   2.70529   2.73503   2.75306
 Alpha virt. eigenvalues --    2.75903   2.76106   2.77128   2.77269   2.78269
 Alpha virt. eigenvalues --    2.80600   2.82017   2.82752   2.83585   2.84639
 Alpha virt. eigenvalues --    2.84948   2.85751   2.86021   2.87688   2.87864
 Alpha virt. eigenvalues --    2.88112   2.89191   2.90248   2.92258   2.94270
 Alpha virt. eigenvalues --    2.94884   2.95762   2.96483   2.96871   2.97216
 Alpha virt. eigenvalues --    2.97895   2.98952   3.00741   3.01269   3.02010
 Alpha virt. eigenvalues --    3.02328   3.03566   3.05269   3.05532   3.07428
 Alpha virt. eigenvalues --    3.08402   3.10339   3.10817   3.11761   3.12652
 Alpha virt. eigenvalues --    3.13905   3.14316   3.16152   3.17494   3.20160
 Alpha virt. eigenvalues --    3.20544   3.23178   3.24328   3.25200   3.25227
 Alpha virt. eigenvalues --    3.25854   3.27554   3.28855   3.29573   3.31200
 Alpha virt. eigenvalues --    3.31875   3.32946   3.33894   3.34288   3.36653
 Alpha virt. eigenvalues --    3.36943   3.37124   3.37303   3.38078   3.38998
 Alpha virt. eigenvalues --    3.41910   3.42765   3.43172   3.44046   3.45270
 Alpha virt. eigenvalues --    3.46348   3.48224   3.49126   3.50805   3.51161
 Alpha virt. eigenvalues --    3.52562   3.52922   3.53065   3.53919   3.55244
 Alpha virt. eigenvalues --    3.55751   3.56411   3.57211   3.57667   3.58597
 Alpha virt. eigenvalues --    3.59807   3.60498   3.61724   3.62580   3.63164
 Alpha virt. eigenvalues --    3.63768   3.65359   3.65508   3.67260   3.67978
 Alpha virt. eigenvalues --    3.68392   3.69406   3.70096   3.71262   3.71324
 Alpha virt. eigenvalues --    3.72389   3.73211   3.74640   3.75058   3.75673
 Alpha virt. eigenvalues --    3.76462   3.76812   3.77365   3.78397   3.78903
 Alpha virt. eigenvalues --    3.79631   3.80054   3.80416   3.81062   3.81263
 Alpha virt. eigenvalues --    3.82934   3.83433   3.84452   3.84891   3.86752
 Alpha virt. eigenvalues --    3.86890   3.87627   3.88657   3.89417   3.90663
 Alpha virt. eigenvalues --    3.91312   3.93162   3.93470   3.94707   3.94897
 Alpha virt. eigenvalues --    3.97403   3.98196   3.98782   3.99396   3.99607
 Alpha virt. eigenvalues --    4.01634   4.02548   4.03314   4.06340   4.07167
 Alpha virt. eigenvalues --    4.07974   4.10727   4.11405   4.12751   4.15718
 Alpha virt. eigenvalues --    4.16127   4.16837   4.17220   4.19495   4.20112
 Alpha virt. eigenvalues --    4.24052   4.25456   4.25702   4.28010   4.29740
 Alpha virt. eigenvalues --    4.31614   4.32043   4.35808   4.36778   4.37247
 Alpha virt. eigenvalues --    4.38762   4.39406   4.41997   4.44801   4.48762
 Alpha virt. eigenvalues --    4.53565   4.54652   4.57850   4.63129   4.65048
 Alpha virt. eigenvalues --    4.73746   4.74481   4.77964   4.85494   4.88547
 Alpha virt. eigenvalues --    4.90388   4.95433   4.99889   5.09635   5.10831
 Alpha virt. eigenvalues --    5.15165   5.17591   5.21035   5.22994   5.23925
 Alpha virt. eigenvalues --    5.24636   5.25412   5.25936   5.26389   5.27975
 Alpha virt. eigenvalues --    5.28452   5.28953   5.29511   5.30596   5.30740
 Alpha virt. eigenvalues --    5.31671   5.33023   5.33609   5.33947   5.34297
 Alpha virt. eigenvalues --    5.35595   5.37066   5.39105   5.43727   5.44710
 Alpha virt. eigenvalues --    5.47796   5.50526   5.53789   5.54720   5.59213
 Alpha virt. eigenvalues --    5.59787   5.60437   5.64505   5.65906   5.74080
 Alpha virt. eigenvalues --    5.98198   6.02943   6.23115   6.94490   6.95424
 Alpha virt. eigenvalues --    6.95640   6.97584   6.97789   6.98261   6.98311
 Alpha virt. eigenvalues --    7.02719   7.03029   7.03072   7.04294   7.04684
 Alpha virt. eigenvalues --    7.05566   7.09346   7.09905   7.12398   7.13817
 Alpha virt. eigenvalues --    7.14039   7.15276   7.17026   7.18123   7.18827
 Alpha virt. eigenvalues --    7.24137   7.24286   7.25698   7.34271   7.35067
 Alpha virt. eigenvalues --    7.35948   7.39681   7.40676   7.43979   7.45605
 Alpha virt. eigenvalues --    7.45946   7.46553   7.48170   7.57730   7.59149
 Alpha virt. eigenvalues --    7.59960   7.61667   7.68359   8.60309   8.61039
 Alpha virt. eigenvalues --   17.70927  17.71160  17.78860  17.79193  17.83482
 Alpha virt. eigenvalues --   17.85575  23.77148  23.79145  24.02625  24.09958
 Alpha virt. eigenvalues --   24.13121  24.15128  24.15578  24.18969  24.20199
 Alpha virt. eigenvalues --   24.25223  24.26180  24.27709  24.29144  24.31378
 Alpha virt. eigenvalues --   24.40239  24.41373  24.45138  24.48658  35.80402
 Alpha virt. eigenvalues --   35.85665  50.13457  50.13598  50.13950  50.14505
 Alpha virt. eigenvalues --   50.18236  50.21781  50.22238  50.25090 189.73310
 Alpha virt. eigenvalues --  189.74263
          Condensed to atoms (all electrons):
               1          2          3          4          5          6
     1  C    7.633898  -0.676588  -0.457878  -0.450037  -0.006233  -0.008187
     2  C   -0.676588  21.020120  -3.390799  -0.250247   0.019632   0.069944
     3  C   -0.457878  -3.390799  21.062587   0.149065  -0.119850  -0.245846
     4  S   -0.450037  -0.250247   0.149065  13.889483   0.311101   0.440613
     5  O   -0.006233   0.019632  -0.119850   0.311101   8.343354  -0.019873
     6  O   -0.008187   0.069944  -0.245846   0.440613  -0.019873   8.224542
     7  O   -0.018046   0.038821  -0.058895   0.316617  -0.015681  -0.019871
     8  C    0.115313  -6.066256  -1.320199   0.192191   0.060874  -0.045908
     9  C    0.664982  -3.505700  -3.452419  -0.187877  -0.016752   0.238767
    10  O    0.003812   0.000974  -0.036413  -0.012677   0.000009   0.000686
    11  C    0.004188   0.038114  -0.112338  -0.000948   0.001025   0.000396
    12  H   -0.001704  -0.015566   0.014296   0.004061   0.000068  -0.000245
    13  H    0.000609   0.009634  -0.006070  -0.000392  -0.000001   0.000003
    14  H   -0.000002   0.000914  -0.007850  -0.000408  -0.000000  -0.000013
    15  C   -1.086444  -0.336987  -1.057620   0.105251   0.020374   0.035987
    16  N   -0.034732  -0.117392   0.120061   0.007043   0.000099  -0.000111
    17  N    0.038247   0.182801  -0.114580  -0.003218  -0.000075   0.000049
    18  C    0.009511   0.120054  -0.014602  -0.002095  -0.000000   0.000039
    19  C    0.003134   0.055593  -0.014027  -0.001759  -0.000025   0.000034
    20  C   -0.001923   0.007835   0.005663  -0.000189  -0.000002   0.000002
    21  C   -0.000400  -0.006674   0.001261  -0.000049  -0.000000  -0.000000
    22  C    0.000087  -0.000852  -0.002723   0.000047   0.000000  -0.000000
    23  S   -0.000001  -0.000038   0.000017   0.000000  -0.000000  -0.000000
    24  O   -0.000000  -0.000000   0.000000   0.000000   0.000000   0.000000
    25  O   -0.000000  -0.000000   0.000001  -0.000000  -0.000000  -0.000000
    26  O    0.000000  -0.000000  -0.000000  -0.000000  -0.000000  -0.000000
    27  C    0.000673  -0.005362  -0.007803   0.001100   0.000006  -0.000006
    28  C    0.001240  -0.029860  -0.002451   0.001701   0.000016  -0.000043
    29  H    0.000078   0.002232  -0.001543  -0.000035  -0.000000   0.000000
    30  H    0.000000   0.000002  -0.000003  -0.000000  -0.000000   0.000000
    31  H   -0.000000  -0.000000   0.000000   0.000000   0.000000  -0.000000
    32  C    0.000278  -0.015931  -0.002697   0.000048   0.000000  -0.000000
    33  C   -0.004951  -0.048247   0.001967   0.000018   0.000000  -0.000000
    34  C   -0.016729  -0.088115   0.040563   0.000394  -0.000001  -0.000010
    35  O    0.000731   0.009089  -0.004685  -0.000082   0.000000  -0.000000
    36  H    0.000002  -0.000010   0.000004   0.000000   0.000000  -0.000000
    37  H   -0.000000  -0.000002  -0.000000  -0.000000  -0.000000  -0.000000
    38  H   -0.001751  -0.015321   0.018271   0.000679   0.000001  -0.000001
    39  C   -0.199410  -1.110125  -4.451603  -0.004649   0.078168  -0.050232
    40  H    0.000985  -0.016674   0.012871   0.000100  -0.000051   0.000015
    41  H   -0.008634   0.080374  -0.019171  -0.001634   0.002836   0.010923
    42  H    0.404186   0.043929   0.055016  -0.003939  -0.002004   0.000101
    43  H    0.355674  -0.235190  -0.049244   0.009194   0.002054  -0.000011
    44  H    0.443580  -0.031181   0.046283  -0.003184  -0.006165   0.000226
               7          8          9         10         11         12
     1  C   -0.018046   0.115313   0.664982   0.003812   0.004188  -0.001704
     2  C    0.038821  -6.066256  -3.505700   0.000974   0.038114  -0.015566
     3  C   -0.058895  -1.320199  -3.452419  -0.036413  -0.112338   0.014296
     4  S    0.316617   0.192191  -0.187877  -0.012677  -0.000948   0.004061
     5  O   -0.015681   0.060874  -0.016752   0.000009   0.001025   0.000068
     6  O   -0.019871  -0.045908   0.238767   0.000686   0.000396  -0.000245
     7  O    8.342345   0.001367  -0.030513  -0.000074  -0.000389   0.000015
     8  C    0.001367  19.474278  -4.264343  -0.160607  -0.017175   0.082202
     9  C   -0.030513  -4.264343  21.071291   0.558005  -0.126334  -0.050025
    10  O   -0.000074  -0.160607   0.558005   8.331173   0.219320  -0.050533
    11  C   -0.000389  -0.017175  -0.126334   0.219320   4.941795   0.407556
    12  H    0.000015   0.082202  -0.050025  -0.050533   0.407556   0.589544
    13  H    0.000000  -0.023676  -0.004413  -0.030506   0.413544  -0.043610
    14  H    0.000000   0.011073   0.005133  -0.062615   0.409256  -0.028736
    15  C    0.039074  -4.566030  -3.480738  -0.346777   0.001660  -0.039486
    16  N    0.000004   0.192134   0.125439  -0.017270  -0.006072   0.005434
    17  N   -0.000008  -0.001506  -0.090187   0.025868  -0.026166   0.000623
    18  C   -0.000042  -0.190661  -0.404159  -0.005967  -0.000024  -0.008186
    19  C   -0.000014  -0.119695  -0.158675  -0.028579   0.043502  -0.017106
    20  C   -0.000001  -0.024562  -0.048057  -0.002875   0.001976  -0.000469
    21  C   -0.000000   0.018872   0.020810  -0.000868   0.010397  -0.000172
    22  C    0.000000  -0.003962   0.030752  -0.000483  -0.012514   0.000436
    23  S   -0.000000   0.000093   0.000907  -0.000019  -0.000311   0.000013
    24  O    0.000000   0.000001   0.000011   0.000000  -0.000038   0.000000
    25  O   -0.000000   0.000008   0.000015  -0.000000   0.000029   0.000000
    26  O    0.000000   0.000001   0.000004  -0.000000  -0.000003  -0.000000
    27  C    0.000002  -0.025242   0.073969   0.015206  -0.037393   0.019591
    28  C    0.000017   0.056276   0.003571   0.016923  -0.030662   0.007975
    29  H   -0.000000  -0.010733   0.001104  -0.001204   0.002944  -0.001394
    30  H    0.000000   0.000165  -0.000068   0.000005   0.000009  -0.000001
    31  H    0.000000   0.000000   0.000008   0.000000  -0.000014   0.000000
    32  C    0.000000   0.010216   0.027865   0.000533  -0.009028   0.000085
    33  C    0.000000   0.041527   0.111810   0.000211   0.001759   0.000156
    34  C    0.000010   0.159796   0.311716   0.004838  -0.005840  -0.000248
    35  O   -0.000000   0.000922   0.000065  -0.000076  -0.000352  -0.000005
    36  H    0.000000  -0.000002   0.000037  -0.000000  -0.000002   0.000000
    37  H   -0.000000   0.000002   0.000024   0.000000   0.000000   0.000000
    38  H    0.000005   0.006346   0.049878  -0.002006  -0.000280   0.000026
    39  C    0.068031   1.873618  -1.637149  -0.001216   0.052440   0.001096
    40  H   -0.000039  -0.023921  -0.002617  -0.000603   0.000459  -0.000015
    41  H    0.002358   0.347435  -0.136454  -0.003568  -0.002997   0.001496
    42  H   -0.004130  -0.024924   0.001914   0.000002  -0.000036  -0.000000
    43  H    0.001939   0.019138  -0.003672  -0.000003  -0.000007   0.000000
    44  H   -0.001994   0.000223   0.010756  -0.000016   0.000059   0.000000
              13         14         15         16         17         18
     1  C    0.000609  -0.000002  -1.086444  -0.034732   0.038247   0.009511
     2  C    0.009634   0.000914  -0.336987  -0.117392   0.182801   0.120054
     3  C   -0.006070  -0.007850  -1.057620   0.120061  -0.114580  -0.014602
     4  S   -0.000392  -0.000408   0.105251   0.007043  -0.003218  -0.002095
     5  O   -0.000001  -0.000000   0.020374   0.000099  -0.000075  -0.000000
     6  O    0.000003  -0.000013   0.035987  -0.000111   0.000049   0.000039
     7  O    0.000000   0.000000   0.039074   0.000004  -0.000008  -0.000042
     8  C   -0.023676   0.011073  -4.566030   0.192134  -0.001506  -0.190661
     9  C   -0.004413   0.005133  -3.480738   0.125439  -0.090187  -0.404159
    10  O   -0.030506  -0.062615  -0.346777  -0.017270   0.025868  -0.005967
    11  C    0.413544   0.409256   0.001660  -0.006072  -0.026166  -0.000024
    12  H   -0.043610  -0.028736  -0.039486   0.005434   0.000623  -0.008186
    13  H    0.578469  -0.040053   0.031814   0.003948  -0.021142   0.023940
    14  H   -0.040053   0.601587  -0.000958  -0.004798   0.005453  -0.000383
    15  C    0.031814  -0.000958  17.021999  -0.302432  -0.031824   0.377247
    16  N    0.003948  -0.004798  -0.302432   7.828485  -0.726949   0.212745
    17  N   -0.021142   0.005453  -0.031824  -0.726949   7.715414  -0.067574
    18  C    0.023940  -0.000383   0.377247   0.212745  -0.067574   8.907497
    19  C    0.058751  -0.000127   0.081799  -0.072633  -0.187073   1.496455
    20  C    0.000430   0.000124  -0.022950  -0.026194   0.005357  -0.012854
    21  C    0.002900  -0.000078  -0.066173  -0.040879   0.039527  -0.825793
    22  C   -0.000832  -0.000045  -0.027321  -0.016804   0.020170  -0.505195
    23  S    0.000175  -0.000040  -0.001030   0.001302   0.000240   0.004429
    24  O   -0.000000  -0.000000  -0.000006   0.000011   0.000006   0.003899
    25  O    0.000003  -0.000000  -0.000024   0.000006   0.000052  -0.001590
    26  O    0.000000  -0.000000  -0.000006   0.000006   0.000018   0.001433
[...]
    19  C   13.194199   1.044075  -0.119156  -2.301990   0.035260   0.008931
    20  C    1.044075  16.372682  -2.005401  -4.442511  -0.307766   0.014685
    21  C   -0.119156  -2.005401  16.087502   3.896777   0.000708  -0.041909
    22  C   -2.301990  -4.442511   3.896777  20.732387   0.106473   0.162085
    23  S    0.035260  -0.307766   0.000708   0.106473  13.480473   0.346757
    24  O    0.008931   0.014685  -0.041909   0.162085   0.346757   8.231411
    25  O    0.032691   0.005951   0.045505  -0.255041   0.385290  -0.040512
    26  O    0.013194   0.178627   0.023185  -0.317021   0.360786  -0.043033
    27  C  -10.184162   0.517166  -5.254769  -1.444861  -0.053516  -0.070934
    28  C    3.331460  -5.670937   0.206222  -5.919742   0.301554  -0.010307
    29  H   -0.059490   0.004928  -0.001783   0.043741   0.001226   0.000013
    30  H    0.054708   0.004887   0.025832  -0.152595  -0.008497   0.001069
    31  H    0.002305  -0.062567   0.375274  -0.082170  -0.003944   0.001612
    32  C    0.780889   1.286742  -4.881496  -2.832806  -0.095856   0.023554
    33  C   -0.897180  -1.061129  -0.170516  -0.044611  -0.010726   0.003637
    34  C   -0.358588  -0.172829  -1.168194  -0.231431   0.000381   0.000924
    35  O    0.011655  -0.064281  -0.003321   0.000683   0.000053   0.000000
    36  H    0.006287  -0.002879  -0.002512  -0.000694   0.000014   0.000000
    37  H   -0.001086  -0.035805   0.033112   0.014708   0.001128  -0.000004
    38  H   -0.030272  -0.003228  -0.002104   0.001366   0.000014  -0.000000
    39  C    0.122489   0.016031  -0.007278   0.002471  -0.000027  -0.000001
    40  H   -0.000328   0.000419   0.000027   0.000013   0.000000  -0.000000
    41  H   -0.000071   0.000002  -0.000002   0.000003   0.000000  -0.000000
    42  H    0.000002  -0.000000  -0.000000  -0.000000   0.000000   0.000000
    43  H   -0.000005  -0.000007  -0.000000   0.000000   0.000000   0.000000
    44  H   -0.000003   0.000001   0.000000   0.000000  -0.000000   0.000000
              25         26         27         28         29         30
     1  C   -0.000000   0.000000   0.000673   0.001240   0.000078   0.000000
     2  C   -0.000000  -0.000000  -0.005362  -0.029860   0.002232   0.000002
     3  C    0.000001  -0.000000  -0.007803  -0.002451  -0.001543  -0.000003
     4  S   -0.000000  -0.000000   0.001100   0.001701  -0.000035  -0.000000
     5  O   -0.000000  -0.000000   0.000006   0.000016  -0.000000  -0.000000
     6  O   -0.000000  -0.000000  -0.000006  -0.000043   0.000000   0.000000
     7  O   -0.000000   0.000000   0.000002   0.000017  -0.000000   0.000000
     8  C    0.000008   0.000001  -0.025242   0.056276  -0.010733   0.000165
     9  C    0.000015   0.000004   0.073969   0.003571   0.001104  -0.000068
    10  O   -0.000000  -0.000000   0.015206   0.016923  -0.001204   0.000005
    11  C    0.000029  -0.000003  -0.037393  -0.030662   0.002944   0.000009
    12  H    0.000000  -0.000000   0.019591   0.007975  -0.001394  -0.000001
    13  H    0.000003   0.000000  -0.079173  -0.024559   0.015592   0.000064
    14  H   -0.000000  -0.000000   0.001658  -0.000127  -0.000056  -0.000021
    15  C   -0.000024  -0.000006   0.000703   0.037838   0.006072  -0.000006
    16  N    0.000006   0.000006   0.112660  -0.043266  -0.006247  -0.000025
    17  N    0.000052   0.000018  -0.030807   0.166279  -0.014322   0.000187
    18  C   -0.001590   0.001433  -0.017578  -1.325801   0.003156   0.011484
    19  C    0.032691   0.013194 -10.184162   3.331460  -0.059490   0.054708
    20  C    0.005951   0.178627   0.517166  -5.670937   0.004928   0.004887
    21  C    0.045505   0.023185  -5.254769   0.206222  -0.001783   0.025832
    22  C   -0.255041  -0.317021  -1.444861  -5.919742   0.043741  -0.152595
    23  S    0.385290   0.360786  -0.053516   0.301554   0.001226  -0.008497
    24  O   -0.040512  -0.043033  -0.070934  -0.010307   0.000013   0.001069
    25  O    8.286594  -0.034614   0.007932   0.185559   0.000044   0.008183
    26  O   -0.034614   8.317737   0.082130   0.004977  -0.000006   0.001901
    27  C    0.007932   0.082130  25.892289  -6.311098  -0.031617   0.315636
    28  C    0.185559   0.004977  -6.311098  21.554812   0.333013   0.059490
    29  H    0.000044  -0.000006  -0.031617   0.333013   0.631428  -0.006514
    30  H    0.008183   0.001901   0.315636   0.059490  -0.006514   0.559706
    31  H    0.001819   0.009025   0.033239  -0.008429   0.000042   0.000071
    32  C   -0.001001   0.033376   1.722375  -0.555478  -0.012275   0.004614
    33  C    0.000173  -0.001858   0.635566   0.707499   0.000930   0.000091
    34  C   -0.000405  -0.000358   0.213103  -0.843134   0.017993   0.000466
    35  O    0.000000   0.000000   0.004033   0.030239   0.000086  -0.000000
    36  H    0.000000   0.000000   0.000219   0.001293  -0.000003   0.000000
    37  H    0.000003  -0.000028  -0.003905  -0.001561   0.000037  -0.000003
    38  H    0.000000   0.000000   0.007980   0.020314   0.000020   0.000000
    39  C    0.000001  -0.000000  -0.022938  -0.043104   0.002827   0.000018
    40  H    0.000000   0.000000   0.000009  -0.000138   0.000004  -0.000000
    41  H    0.000000   0.000000   0.000005  -0.000025   0.000001  -0.000000
    42  H   -0.000000  -0.000000   0.000000   0.000000   0.000000  -0.000000
    43  H    0.000000   0.000000   0.000002   0.000033  -0.000000   0.000000
    44  H   -0.000000  -0.000000  -0.000000  -0.000009   0.000000  -0.000000
              31         32         33         34         35         36
     1  C   -0.000000   0.000278  -0.004951  -0.016729   0.000731   0.000002
     2  C   -0.000000  -0.015931  -0.048247  -0.088115   0.009089  -0.000010
     3  C    0.000000  -0.002697   0.001967   0.040563  -0.004685   0.000004
     4  S    0.000000   0.000048   0.000018   0.000394  -0.000082   0.000000
     5  O    0.000000   0.000000   0.000000  -0.000001   0.000000   0.000000
     6  O   -0.000000  -0.000000  -0.000000  -0.000010  -0.000000  -0.000000
     7  O    0.000000   0.000000   0.000000   0.000010  -0.000000   0.000000
     8  C    0.000000   0.010216   0.041527   0.159796   0.000922  -0.000002
     9  C    0.000008   0.027865   0.111810   0.311716   0.000065   0.000037
    10  O    0.000000   0.000533   0.000211   0.004838  -0.000076  -0.000000
    11  C   -0.000014  -0.009028   0.001759  -0.005840  -0.000352  -0.000002
    12  H    0.000000   0.000085   0.000156  -0.000248  -0.000005   0.000000
    13  H    0.000000  -0.002190   0.000087   0.012573   0.000015  -0.000000
    14  H   -0.000000   0.000158  -0.000207  -0.001513  -0.000003   0.000000
    15  C    0.000003   0.036815  -0.098702  -0.271030  -0.010507   0.000154
    16  N    0.000068   0.004116   0.022372   0.001870  -0.025263  -0.000814
    17  N    0.000108  -0.025537  -0.002940  -0.097813   0.049456   0.000001
    18  C    0.004009   0.792977  -2.047561  -0.230666  -0.146684   0.009364
    19  C    0.002305   0.780889  -0.897180  -0.358588   0.011655   0.006287
    20  C   -0.062567   1.286742  -1.061129  -0.172829  -0.064281  -0.002879
    21  C    0.375274  -4.881496  -0.170516  -1.168194  -0.003321  -0.002512
    22  C   -0.082170  -2.832806  -0.044611  -0.231431   0.000683  -0.000694
    23  S   -0.003944  -0.095856  -0.010726   0.000381   0.000053   0.000014
    24  O    0.001612   0.023554   0.003637   0.000924   0.000000   0.000000
    25  O    0.001819  -0.001001   0.000173  -0.000405   0.000000   0.000000
    26  O    0.009025   0.033376  -0.001858  -0.000358   0.000000   0.000000
    27  C    0.033239   1.722375   0.635566   0.213103   0.004033   0.000219
    28  C   -0.008429  -0.555478   0.707499  -0.843134   0.030239   0.001293
    29  H    0.000042  -0.012275   0.000930   0.017993   0.000086  -0.000003
    30  H    0.000071   0.004614   0.000091   0.000466  -0.000000   0.000000
    31  H    0.557895   0.037405   0.011392  -0.000722  -0.000005  -0.000044
    32  C    0.037405  11.554674  -1.244211  -0.613951  -0.051758  -0.027269
    33  C    0.011392  -1.244211  10.537377  -0.481572  -0.139482   0.424262
    34  C   -0.000722  -0.613951  -0.481572   9.323428   0.480097  -0.070334
    35  O   -0.000005  -0.051758  -0.139482   0.480097   8.427137   0.005913
    36  H   -0.000044  -0.027269   0.424262  -0.070334   0.005913   0.590607
    37  H    0.006044   0.379874  -0.048631  -0.003812  -0.000893  -0.009406
    38  H   -0.000000   0.003253   0.031029   0.075883   0.014574   0.000224
    39  C   -0.000001  -0.022067  -0.082390  -0.134734   0.002811  -0.000059
    40  H   -0.000000  -0.000060   0.001672   0.006542  -0.001073   0.000001
    41  H   -0.000000  -0.000001   0.000005   0.000137  -0.000001  -0.000000
    42  H    0.000000  -0.000001  -0.000005  -0.000032   0.000000  -0.000000
    43  H    0.000000   0.000004  -0.000006  -0.000075   0.000005   0.000000
    44  H   -0.000000   0.000000   0.000007   0.000079  -0.000002  -0.000000
              37         38         39         40         41         42
     1  C   -0.000000  -0.001751  -0.199410   0.000985  -0.008634   0.404186
     2  C   -0.000002  -0.015321  -1.110125  -0.016674   0.080374   0.043929
     3  C   -0.000000   0.018271  -4.451603   0.012871  -0.019171   0.055016
     4  S   -0.000000   0.000679  -0.004649   0.000100  -0.001634  -0.003939
     5  O   -0.000000   0.000001   0.078168  -0.000051   0.002836  -0.002004
     6  O   -0.000000  -0.000001  -0.050232   0.000015   0.010923   0.000101
     7  O   -0.000000   0.000005   0.068031  -0.000039   0.002358  -0.004130
     8  C    0.000002   0.006346   1.873618  -0.023921   0.347435  -0.024924
     9  C    0.000024   0.049878  -1.637149  -0.002617  -0.136454   0.001914
    10  O    0.000000  -0.002006  -0.001216  -0.000603  -0.003568   0.000002
    11  C    0.000000  -0.000280   0.052440   0.000459  -0.002997  -0.000036
    12  H    0.000000   0.000026   0.001096  -0.000015   0.001496  -0.000000
    13  H   -0.000000   0.000147   0.000827   0.000029   0.000469  -0.000000
    14  H    0.000000  -0.000015   0.004306  -0.000002  -0.000806  -0.000000
    15  C   -0.000056  -0.073280  -0.316728   0.017184   0.062266  -0.006769
    16  N   -0.000051   0.271606  -0.141128  -0.016567   0.000976   0.000168
    17  N    0.000302  -0.006098   0.192738  -0.002275  -0.000854   0.000015
    18  C   -0.011032  -0.116546   0.141423  -0.005135   0.000126   0.000057
    19  C   -0.001086  -0.030272   0.122489  -0.000328  -0.000071   0.000002
    20  C   -0.035805  -0.003228   0.016031   0.000419   0.000002  -0.000000
    21  C    0.033112  -0.002104  -0.007278   0.000027  -0.000002  -0.000000
    22  C    0.014708   0.001366   0.002471   0.000013   0.000003  -0.000000
    23  S    0.001128   0.000014  -0.000027   0.000000   0.000000   0.000000
    24  O   -0.000004  -0.000000  -0.000001  -0.000000  -0.000000   0.000000
    25  O    0.000003   0.000000   0.000001   0.000000   0.000000  -0.000000
    26  O   -0.000028   0.000000  -0.000000   0.000000   0.000000  -0.000000
    27  C   -0.003905   0.007980  -0.022938   0.000009   0.000005   0.000000
    28  C   -0.001561   0.020314  -0.043104  -0.000138  -0.000025   0.000000
    29  H    0.000037   0.000020   0.002827   0.000004   0.000001   0.000000
    30  H   -0.000003   0.000000   0.000018  -0.000000  -0.000000  -0.000000
    31  H    0.006044  -0.000000  -0.000001  -0.000000  -0.000000   0.000000
    32  C    0.379874   0.003253  -0.022067  -0.000060  -0.000001  -0.000001
    33  C   -0.048631   0.031029  -0.082390   0.001672   0.000005  -0.000005
    34  C   -0.003812   0.075883  -0.134734   0.006542   0.000137  -0.000032
    35  O   -0.000893   0.014574   0.002811  -0.001073  -0.000001   0.000000
    36  H   -0.009406   0.000224  -0.000059   0.000001  -0.000000  -0.000000
    37  H    0.594651   0.000003  -0.000019  -0.000000  -0.000000  -0.000000
    38  H    0.000003   0.434276  -0.006615   0.011506   0.000027  -0.000016
    39  C   -0.000019  -0.006615  11.826931   0.343499  -0.008837  -0.102461
    40  H   -0.000000   0.011506   0.343499   0.595348   0.000064   0.000372
    41  H   -0.000000   0.000027  -0.008837   0.000064   0.527203   0.000007
    42  H   -0.000000  -0.000016  -0.102461   0.000372   0.000007   0.528196
    43  H   -0.000000   0.000111   0.160305   0.004109   0.000031  -0.032704
    44  H    0.000000   0.000008  -0.067188   0.000455   0.000005  -0.028291
              43         44
     1  C    0.355674   0.443580
     2  C   -0.235190  -0.031181
     3  C   -0.049244   0.046283
     4  S    0.009194  -0.003184
     5  O    0.002054  -0.006165
     6  O   -0.000011   0.000226
     7  O    0.001939  -0.001994
     8  C    0.019138   0.000223
     9  C   -0.003672   0.010756
    10  O   -0.000003  -0.000016
    11  C   -0.000007   0.000059
    12  H    0.000000   0.000000
    13  H    0.000000   0.000000
    14  H    0.000000   0.000000
    15  C    0.087532  -0.031077
    16  N   -0.000939  -0.000007
    17  N   -0.000307   0.000052
    18  C    0.000085  -0.000130
    19  C   -0.000005  -0.000003
    20  C   -0.000007   0.000001
    21  C   -0.000000   0.000000
    22  C    0.000000   0.000000
    23  S    0.000000  -0.000000
    24  O    0.000000   0.000000
    25  O    0.000000  -0.000000
    26  O    0.000000  -0.000000
    27  C    0.000002  -0.000000
    28  C    0.000033  -0.000009
    29  H   -0.000000   0.000000
    30  H    0.000000  -0.000000
    31  H    0.000000  -0.000000
    32  C    0.000004   0.000000
    33  C   -0.000006   0.000007
    34  C   -0.000075   0.000079
    35  O    0.000005  -0.000002
    36  H    0.000000  -0.000000
    37  H   -0.000000   0.000000
    38  H    0.000111   0.000008
    39  C    0.160305  -0.067188
    40  H    0.004109   0.000455
    41  H    0.000031   0.000005
    42  H   -0.032704  -0.028291
    43  H    0.634541  -0.033587
    44  H   -0.033587   0.529027
 Mulliken charges:
               1
     1  C   -0.707561
     2  C    0.263055
     3  C   -0.576616
     4  S    1.494715
     5  O   -0.652904
     6  O   -0.631970
     7  O   -0.660910
     8  C    0.225331
     9  C    0.291322
    10  O   -0.412611
    11  C   -0.161507
    12  H    0.122827
    13  H    0.122593
    14  H    0.109195
    15  C    0.211185
    16  N   -0.309983
    17  N    0.008287
    18  C   -0.179669
    19  C    0.174630
    20  C    0.501833
    21  C   -0.188383
    22  C   -0.415993
    23  S    1.454476
    24  O   -0.591861
    25  O   -0.626669
    26  O   -0.629477
    27  C   -0.076088
    28  C   -0.207572
    29  H    0.079714
    30  H    0.119146
    31  H    0.117578
    32  C   -0.306242
    33  C   -0.148620
    34  C    0.141342
    35  O   -0.589093
    36  H    0.075645
    37  H    0.086409
    38  H    0.309983
    39  C   -0.480072
    40  H    0.073815
    41  H    0.146303
    42  H    0.171346
    43  H    0.081001
    44  H    0.172071
 Sum of Mulliken charges =  -2.00000
 Mulliken charges with hydrogens summed into heavy atoms:
               1
     1  C   -0.283143
     2  C    0.263055
     3  C   -0.576616
     4  S    1.494715
     5  O   -0.652904
     6  O   -0.631970
     7  O   -0.660910
     8  C    0.371634
     9  C    0.291322
    10  O   -0.412611
    11  C    0.193107
    15  C    0.211185
    16  N   -0.000001
    17  N    0.008287
    18  C   -0.179669
    19  C    0.174630
    20  C    0.501833
    21  C   -0.070804
    22  C   -0.415993
    23  S    1.454476
    24  O   -0.591861
    25  O   -0.626669
    26  O   -0.629477
    27  C    0.043059
    28  C   -0.127858
    32  C   -0.219833
    33  C   -0.072975
    34  C    0.141342
    35  O   -0.589093
    39  C   -0.406257
 Electronic spatial extent (au):  <R**2>=          22419.0045
 Charge=             -2.0000 electrons
 Dipole moment (field-independent basis, Debye):
    X=              0.6696    Y=             11.2223    Z=             -1.7689  Tot=             11.3806
 Quadrupole moment (field-independent basis, Debye-Ang):
   XX=           -613.3415   YY=           -238.1249   ZZ=           -215.5468
   XY=            -16.2232   XZ=              3.3368   YZ=             10.0051
 Traceless Quadrupole moment (field-independent basis, Debye-Ang):
   XX=           -257.6704   YY=            117.5462   ZZ=            140.1242
   XY=            -16.2232   XZ=              3.3368   YZ=             10.0051
 Octapole moment (field-independent basis, Debye-Ang**2):
  XXX=             67.6854  YYY=              2.1569  ZZZ=            -13.7823  XYY=             38.0737
  XXY=            683.9513  XXZ=           -143.3106  XZZ=             12.9419  YZZ=             14.3077
  YYZ=             -6.4203  XYZ=             -1.7022
 Hexadecapole moment (field-independent basis, Debye-Ang**3):
 XXXX=         -46497.6055 YYYY=          -4609.4102 ZZZZ=           -935.5060 XXXY=           -849.2359
 XXXZ=            151.8258 YYYX=           -161.7748 YYYZ=             95.6808 ZZZX=            -51.8756
 ZZZY=             13.2362 XXYY=          -6244.9334 XXZZ=          -5162.7355 YYZZ=           -888.4687
 XXYZ=            237.2998 YYXZ=             38.3250 ZZXY=             -2.2621
 N-N= 3.103141333654D+03 E-N=-1.143340055710D+04  KE= 2.195283464952D+03
 1\1\GINC-COMPCHEM0\SP\RB3LYP TD-FC\6-311+G(2d,p)\C18H14N2O8S2(2-)\APAC
 HE\09-Jan-2019\0\\#N TD(NStates=10) B3LYP/6-311+G(2d,p) Geom=Connectiv
 ity\\C18H14O8N2S2(-2)\\-2,1\C\C,1,1.488663349\C,2,1.403874827,1,121.34
 34406\S,3,1.886614041,2,123.4903596,1,-0.44489522,0\O,4,1.50088198,3,1
 04.8482892,2,59.21045633,0\O,4,1.500078406,5,113.636291,3,-114.3008644
 ,0\O,4,1.501892079,5,113.7172538,6,-132.0424783,0\C,3,1.389499308,4,11
 8.4734314,5,-121.5152599,0\C,8,1.402547335,3,121.8980177,4,-178.994496
 2,0\O,9,1.393327485,8,119.0189442,3,172.7226577,0\C,10,1.411669341,9,1
 14.0546255,8,79.92322179,0\H,11,1.096067976,10,112.9386947,9,-45.06043
 124,0\H,11,1.102436081,10,111.3904235,9,79.08149957,0\H,11,1.093220295
 ,10,102.8991689,9,-163.6955953,0\C,9,1.402158751,10,120.9811171,11,-10
 6.344561,0\N,15,1.453652185,9,123.3507098,10,3.85932858,0\N,16,1.33017
 2931,15,118.0994108,9,53.9342396,0\C,17,1.330877572,16,123.2932383,15,
 163.3060096,0\C,18,1.464615574,17,117.9306507,16,173.4220651,0\C,19,1.
 40794406,18,119.1385043,17,176.4456473,0\C,20,1.402899411,19,119.99658
 92,18,179.3888662,0\C,21,1.38622868,20,121.4253911,19,-0.07860841,0\S,
 22,1.867879688,21,120.4386537,20,-178.7216664,0\O,23,1.50169938,22,104
 .4790651,21,87.98266749,0\O,23,1.501061659,24,113.8614396,22,-114.1622
 761,0\O,23,1.504805369,24,113.3836421,25,-132.5891426,0\C,22,1.3964686
 66,23,121.5000737,24,-91.12080136,0\C,19,1.400500474,20,118.5032455,21
 ,-0.27276821,0\H,28,1.103617536,19,120.1319288,20,-179.8372154,0\H,27,
 1.09821773,22,118.7231865,23,-1.72979428,0\H,21,1.099285841,20,119.491
 7262,19,179.4481089,0\C,20,1.444305893,19,120.4574096,18,-0.42361213,0
 \C,32,1.344807626,20,122.2216551,19,1.0600016,0\C,18,1.478977736,17,12
 2.7833183,16,-8.82466203,0\O,34,1.237714638,18,121.1366808,17,3.621638
 03,0\H,33,1.095086649,32,121.370228,20,179.8231057,0\H,32,1.097465936,
 20,117.2595394,19,-179.0551485,0\H,16,1.015050192,17,115.8308876,18,18
 .76646935,0\C,2,1.394482745,3,120.6990539,4,179.6037566,0\H,39,1.09860
 9546,2,118.9823038,3,-179.9378027,0\H,8,1.101489518,3,119.0246092,4,0.
 43448827,0\H,1,1.099586616,2,110.6677414,3,58.96774547,0\H,1,1.0985110
 41,2,112.4379757,3,179.5143496,0\H,1,1.0996324,2,110.6311031,3,-59.955
 9256,0\\Version=ES64L-G16RevA.03\State=1-A\HF=-2202.5240459\RMSD=5.088
 e-09\PG=C01 [X(C18H14N2O8S2)]\\@


 This summer one third of the nation will be ill-housed
 ill-nourished and ill-clad. Only they call it a vacation.
 -- Jonas Salk
 Job cpu time:       1 days  1 hours 36 minutes  2.4 seconds.
 Elapsed time:       0 days  6 hours 49 minutes 53.2 seconds.
 File lengths (MBytes):  RWF=   3945 Int=      0 D2E=      0 Chk=    292 Scr=      1
 Normal termination of Gaussian 16 at Wed Jan  9 01:17:09 2019.


